
     Program PWSCF v.5.1.1 starts on 26Dec2014 at 15:50:54 

     This program is part of the open-source Quantum ESPRESSO suite
     for quantum simulation of materials; please cite
         "P. Giannozzi et al., J. Phys.:Condens. Matter 21 395502 (2009);
          URL http://www.quantum-espresso.org", 
     in publications or presentations arising from this work. More details at
     http://www.quantum-espresso.org/quote

     Parallel version (MPI), running on     1 processors
     Waiting for input...
     Reading input from standard input

     Current dimensions of program PWSCF are:
     Max number of different atomic species (ntypx) = 10
     Max number of k-points (npk) =  40000
     Max angular momentum in pseudopotentials (lmaxx) =  3

     Atomic positions and unit cell read from directory:
     ./tmp/SrVO3.save/

               file O.pbe-rrkjus.UPF: wavefunction(s)  2S renormalized

     Subspace diagonalization in iterative solution of the eigenvalue problem:
     a serial algorithm will be used


     G-vector sticks info
     --------------------
     sticks:   dense  smooth     PW     G-vecs:    dense   smooth      PW
     Sum         593     593    185                10779    10779    1935



     bravais-lattice index     =            1
     lattice parameter (alat)  =       7.2528  a.u.
     unit-cell volume          =     381.5154 (a.u.)^3
     number of atoms/cell      =            5
     number of atomic types    =            3
     number of electrons       =        41.00
     number of Kohn-Sham states=           25
     kinetic-energy cutoff     =      35.0000  Ry
     charge density cutoff     =     140.0000  Ry
     Exchange-correlation      =  SLA  PW   PBE  PBE ( 1  4  3  4 0 0)

     celldm(1)=   7.252772  celldm(2)=   0.000000  celldm(3)=   0.000000
     celldm(4)=   0.000000  celldm(5)=   0.000000  celldm(6)=   0.000000

     crystal axes: (cart. coord. in units of alat)
               a(1) = (   1.000000   0.000000   0.000000 )  
               a(2) = (   0.000000   1.000000   0.000000 )  
               a(3) = (   0.000000   0.000000   1.000000 )  

     reciprocal axes: (cart. coord. in units 2 pi/alat)
               b(1) = (  1.000000  0.000000  0.000000 )  
               b(2) = (  0.000000  1.000000  0.000000 )  
               b(3) = (  0.000000  0.000000  1.000000 )  


     PseudoPot. # 1 for V  read from file:
     ./V.pbe-sp-van.UPF
     MD5 check sum: faa3d904276cfa7a55899deb573b58ef
     Pseudo is Ultrasoft, Zval = 13.0
     Generated by new atomic code, or converted to UPF format
     Using radial grid of  853 points,  6 beta functions with: 
                l(1) =   0
                l(2) =   0
                l(3) =   1
                l(4) =   1
                l(5) =   2
                l(6) =   2
     Q(r) pseudized with  8 coefficients,  rinner =    1.200   1.200   1.200
                                                       1.200   1.200

     PseudoPot. # 2 for st read from file:
     ./Sr.pbe-sp-van.UPF
     MD5 check sum: 34096ecf8ccac85b6555741f084dc219
     Pseudo is Ultrasoft, Zval = 10.0
     Generated by new atomic code, or converted to UPF format
     Using radial grid of  883 points,  6 beta functions with: 
                l(1) =   0
                l(2) =   0
                l(3) =   1
                l(4) =   1
                l(5) =   2
                l(6) =   2
     Q(r) pseudized with  8 coefficients,  rinner =    1.000   1.000   1.000
                                                       1.000   1.000

     PseudoPot. # 3 for O  read from file:
     ./O.pbe-rrkjus.UPF
     MD5 check sum: 390ba29e75625707450f3bd3f0eb6be9
     Pseudo is Ultrasoft, Zval =  6.0
     Generated by new atomic code, or converted to UPF format
     Using radial grid of 1269 points,  4 beta functions with: 
                l(1) =   0
                l(2) =   0
                l(3) =   1
                l(4) =   1
     Q(r) pseudized with 0 coefficients 


     atomic species   valence    mass     pseudopotential
        V             13.00    23.00000     V ( 1.00)
        Sr            10.00    38.00000     st( 1.00)
        O              6.00     8.00000     O ( 1.00)

     No symmetry found


                                    s                        frac. trans.

      isym =  1     identity                                     

 cryst.   s( 1) = (     1          0          0      )
                  (     0          1          0      )
                  (     0          0          1      )

 cart.    s( 1) = (  1.0000000  0.0000000  0.0000000 )
                  (  0.0000000  1.0000000  0.0000000 )
                  (  0.0000000  0.0000000  1.0000000 )


     point group C_1 (1)    
     there are  1 classes
     the character table:

       E    
A      1.00

     the symmetry operations in each class:
     E        1

   Cartesian axes

     site n.     atom                  positions (alat units)
         1           V   tau(   1) = (   0.0000000   0.0000000   0.0000000  )
         2           O   tau(   2) = (   0.5000000   0.0000000   0.0000000  )
         3           O   tau(   3) = (   0.0000000   0.5000000   0.0000000  )
         4           O   tau(   4) = (   0.0000000   0.0000000   0.5000000  )
         5           Sr  tau(   5) = (   0.5000000   0.5000000   0.5000000  )

   Crystallographic axes

     site n.     atom                  positions (cryst. coord.)
         1           V   tau(   1) = (  0.0000000  0.0000000  0.0000000  )
         2           O   tau(   2) = (  0.5000000  0.0000000  0.0000000  )
         3           O   tau(   3) = (  0.0000000  0.5000000  0.0000000  )
         4           O   tau(   4) = (  0.0000000  0.0000000  0.5000000  )
         5           Sr  tau(   5) = (  0.5000000  0.5000000  0.5000000  )

     number of k points=  1728  gaussian smearing, width (Ry)=  0.0100
                       cart. coord. in units 2pi/alat
        k(    1) = (   0.0000000   0.0000000   0.0000000), wk =   0.0011574
        k(    2) = (   0.0000000   0.0000000   0.0833333), wk =   0.0011574
        k(    3) = (   0.0000000   0.0000000   0.1666667), wk =   0.0011574
        k(    4) = (   0.0000000   0.0000000   0.2500000), wk =   0.0011574
        k(    5) = (   0.0000000   0.0000000   0.3333333), wk =   0.0011574
        k(    6) = (   0.0000000   0.0000000   0.4166667), wk =   0.0011574
        k(    7) = (   0.0000000   0.0000000  -0.5000000), wk =   0.0011574
        k(    8) = (   0.0000000   0.0000000  -0.4166667), wk =   0.0011574
        k(    9) = (   0.0000000   0.0000000  -0.3333333), wk =   0.0011574
        k(   10) = (   0.0000000   0.0000000  -0.2500000), wk =   0.0011574
        k(   11) = (   0.0000000   0.0000000  -0.1666667), wk =   0.0011574
        k(   12) = (   0.0000000   0.0000000  -0.0833333), wk =   0.0011574
        k(   13) = (   0.0000000   0.0833333   0.0000000), wk =   0.0011574
        k(   14) = (   0.0000000   0.0833333   0.0833333), wk =   0.0011574
        k(   15) = (   0.0000000   0.0833333   0.1666667), wk =   0.0011574
        k(   16) = (   0.0000000   0.0833333   0.2500000), wk =   0.0011574
        k(   17) = (   0.0000000   0.0833333   0.3333333), wk =   0.0011574
        k(   18) = (   0.0000000   0.0833333   0.4166667), wk =   0.0011574
        k(   19) = (   0.0000000   0.0833333  -0.5000000), wk =   0.0011574
        k(   20) = (   0.0000000   0.0833333  -0.4166667), wk =   0.0011574
        k(   21) = (   0.0000000   0.0833333  -0.3333333), wk =   0.0011574
        k(   22) = (   0.0000000   0.0833333  -0.2500000), wk =   0.0011574
        k(   23) = (   0.0000000   0.0833333  -0.1666667), wk =   0.0011574
        k(   24) = (   0.0000000   0.0833333  -0.0833333), wk =   0.0011574
        k(   25) = (   0.0000000   0.1666667   0.0000000), wk =   0.0011574
        k(   26) = (   0.0000000   0.1666667   0.0833333), wk =   0.0011574
        k(   27) = (   0.0000000   0.1666667   0.1666667), wk =   0.0011574
        k(   28) = (   0.0000000   0.1666667   0.2500000), wk =   0.0011574
        k(   29) = (   0.0000000   0.1666667   0.3333333), wk =   0.0011574
        k(   30) = (   0.0000000   0.1666667   0.4166667), wk =   0.0011574
        k(   31) = (   0.0000000   0.1666667  -0.5000000), wk =   0.0011574
        k(   32) = (   0.0000000   0.1666667  -0.4166667), wk =   0.0011574
        k(   33) = (   0.0000000   0.1666667  -0.3333333), wk =   0.0011574
        k(   34) = (   0.0000000   0.1666667  -0.2500000), wk =   0.0011574
        k(   35) = (   0.0000000   0.1666667  -0.1666667), wk =   0.0011574
        k(   36) = (   0.0000000   0.1666667  -0.0833333), wk =   0.0011574
        k(   37) = (   0.0000000   0.2500000   0.0000000), wk =   0.0011574
        k(   38) = (   0.0000000   0.2500000   0.0833333), wk =   0.0011574
        k(   39) = (   0.0000000   0.2500000   0.1666667), wk =   0.0011574
        k(   40) = (   0.0000000   0.2500000   0.2500000), wk =   0.0011574
        k(   41) = (   0.0000000   0.2500000   0.3333333), wk =   0.0011574
        k(   42) = (   0.0000000   0.2500000   0.4166667), wk =   0.0011574
        k(   43) = (   0.0000000   0.2500000  -0.5000000), wk =   0.0011574
        k(   44) = (   0.0000000   0.2500000  -0.4166667), wk =   0.0011574
        k(   45) = (   0.0000000   0.2500000  -0.3333333), wk =   0.0011574
        k(   46) = (   0.0000000   0.2500000  -0.2500000), wk =   0.0011574
        k(   47) = (   0.0000000   0.2500000  -0.1666667), wk =   0.0011574
        k(   48) = (   0.0000000   0.2500000  -0.0833333), wk =   0.0011574
        k(   49) = (   0.0000000   0.3333333   0.0000000), wk =   0.0011574
        k(   50) = (   0.0000000   0.3333333   0.0833333), wk =   0.0011574
        k(   51) = (   0.0000000   0.3333333   0.1666667), wk =   0.0011574
        k(   52) = (   0.0000000   0.3333333   0.2500000), wk =   0.0011574
        k(   53) = (   0.0000000   0.3333333   0.3333333), wk =   0.0011574
        k(   54) = (   0.0000000   0.3333333   0.4166667), wk =   0.0011574
        k(   55) = (   0.0000000   0.3333333  -0.5000000), wk =   0.0011574
        k(   56) = (   0.0000000   0.3333333  -0.4166667), wk =   0.0011574
        k(   57) = (   0.0000000   0.3333333  -0.3333333), wk =   0.0011574
        k(   58) = (   0.0000000   0.3333333  -0.2500000), wk =   0.0011574
        k(   59) = (   0.0000000   0.3333333  -0.1666667), wk =   0.0011574
        k(   60) = (   0.0000000   0.3333333  -0.0833333), wk =   0.0011574
        k(   61) = (   0.0000000   0.4166667   0.0000000), wk =   0.0011574
        k(   62) = (   0.0000000   0.4166667   0.0833333), wk =   0.0011574
        k(   63) = (   0.0000000   0.4166667   0.1666667), wk =   0.0011574
        k(   64) = (   0.0000000   0.4166667   0.2500000), wk =   0.0011574
        k(   65) = (   0.0000000   0.4166667   0.3333333), wk =   0.0011574
        k(   66) = (   0.0000000   0.4166667   0.4166667), wk =   0.0011574
        k(   67) = (   0.0000000   0.4166667  -0.5000000), wk =   0.0011574
        k(   68) = (   0.0000000   0.4166667  -0.4166667), wk =   0.0011574
        k(   69) = (   0.0000000   0.4166667  -0.3333333), wk =   0.0011574
        k(   70) = (   0.0000000   0.4166667  -0.2500000), wk =   0.0011574
        k(   71) = (   0.0000000   0.4166667  -0.1666667), wk =   0.0011574
        k(   72) = (   0.0000000   0.4166667  -0.0833333), wk =   0.0011574
        k(   73) = (   0.0000000  -0.5000000   0.0000000), wk =   0.0011574
        k(   74) = (   0.0000000  -0.5000000   0.0833333), wk =   0.0011574
        k(   75) = (   0.0000000  -0.5000000   0.1666667), wk =   0.0011574
        k(   76) = (   0.0000000  -0.5000000   0.2500000), wk =   0.0011574
        k(   77) = (   0.0000000  -0.5000000   0.3333333), wk =   0.0011574
        k(   78) = (   0.0000000  -0.5000000   0.4166667), wk =   0.0011574
        k(   79) = (   0.0000000  -0.5000000  -0.5000000), wk =   0.0011574
        k(   80) = (   0.0000000  -0.5000000  -0.4166667), wk =   0.0011574
        k(   81) = (   0.0000000  -0.5000000  -0.3333333), wk =   0.0011574
        k(   82) = (   0.0000000  -0.5000000  -0.2500000), wk =   0.0011574
        k(   83) = (   0.0000000  -0.5000000  -0.1666667), wk =   0.0011574
        k(   84) = (   0.0000000  -0.5000000  -0.0833333), wk =   0.0011574
        k(   85) = (   0.0000000  -0.4166667   0.0000000), wk =   0.0011574
        k(   86) = (   0.0000000  -0.4166667   0.0833333), wk =   0.0011574
        k(   87) = (   0.0000000  -0.4166667   0.1666667), wk =   0.0011574
        k(   88) = (   0.0000000  -0.4166667   0.2500000), wk =   0.0011574
        k(   89) = (   0.0000000  -0.4166667   0.3333333), wk =   0.0011574
        k(   90) = (   0.0000000  -0.4166667   0.4166667), wk =   0.0011574
        k(   91) = (   0.0000000  -0.4166667  -0.5000000), wk =   0.0011574
        k(   92) = (   0.0000000  -0.4166667  -0.4166667), wk =   0.0011574
        k(   93) = (   0.0000000  -0.4166667  -0.3333333), wk =   0.0011574
        k(   94) = (   0.0000000  -0.4166667  -0.2500000), wk =   0.0011574
        k(   95) = (   0.0000000  -0.4166667  -0.1666667), wk =   0.0011574
        k(   96) = (   0.0000000  -0.4166667  -0.0833333), wk =   0.0011574
        k(   97) = (   0.0000000  -0.3333333   0.0000000), wk =   0.0011574
        k(   98) = (   0.0000000  -0.3333333   0.0833333), wk =   0.0011574
        k(   99) = (   0.0000000  -0.3333333   0.1666667), wk =   0.0011574
        k(  100) = (   0.0000000  -0.3333333   0.2500000), wk =   0.0011574
        k(  101) = (   0.0000000  -0.3333333   0.3333333), wk =   0.0011574
        k(  102) = (   0.0000000  -0.3333333   0.4166667), wk =   0.0011574
        k(  103) = (   0.0000000  -0.3333333  -0.5000000), wk =   0.0011574
        k(  104) = (   0.0000000  -0.3333333  -0.4166667), wk =   0.0011574
        k(  105) = (   0.0000000  -0.3333333  -0.3333333), wk =   0.0011574
        k(  106) = (   0.0000000  -0.3333333  -0.2500000), wk =   0.0011574
        k(  107) = (   0.0000000  -0.3333333  -0.1666667), wk =   0.0011574
        k(  108) = (   0.0000000  -0.3333333  -0.0833333), wk =   0.0011574
        k(  109) = (   0.0000000  -0.2500000   0.0000000), wk =   0.0011574
        k(  110) = (   0.0000000  -0.2500000   0.0833333), wk =   0.0011574
        k(  111) = (   0.0000000  -0.2500000   0.1666667), wk =   0.0011574
        k(  112) = (   0.0000000  -0.2500000   0.2500000), wk =   0.0011574
        k(  113) = (   0.0000000  -0.2500000   0.3333333), wk =   0.0011574
        k(  114) = (   0.0000000  -0.2500000   0.4166667), wk =   0.0011574
        k(  115) = (   0.0000000  -0.2500000  -0.5000000), wk =   0.0011574
        k(  116) = (   0.0000000  -0.2500000  -0.4166667), wk =   0.0011574
        k(  117) = (   0.0000000  -0.2500000  -0.3333333), wk =   0.0011574
        k(  118) = (   0.0000000  -0.2500000  -0.2500000), wk =   0.0011574
        k(  119) = (   0.0000000  -0.2500000  -0.1666667), wk =   0.0011574
        k(  120) = (   0.0000000  -0.2500000  -0.0833333), wk =   0.0011574
        k(  121) = (   0.0000000  -0.1666667   0.0000000), wk =   0.0011574
        k(  122) = (   0.0000000  -0.1666667   0.0833333), wk =   0.0011574
        k(  123) = (   0.0000000  -0.1666667   0.1666667), wk =   0.0011574
        k(  124) = (   0.0000000  -0.1666667   0.2500000), wk =   0.0011574
        k(  125) = (   0.0000000  -0.1666667   0.3333333), wk =   0.0011574
        k(  126) = (   0.0000000  -0.1666667   0.4166667), wk =   0.0011574
        k(  127) = (   0.0000000  -0.1666667  -0.5000000), wk =   0.0011574
        k(  128) = (   0.0000000  -0.1666667  -0.4166667), wk =   0.0011574
        k(  129) = (   0.0000000  -0.1666667  -0.3333333), wk =   0.0011574
        k(  130) = (   0.0000000  -0.1666667  -0.2500000), wk =   0.0011574
        k(  131) = (   0.0000000  -0.1666667  -0.1666667), wk =   0.0011574
        k(  132) = (   0.0000000  -0.1666667  -0.0833333), wk =   0.0011574
        k(  133) = (   0.0000000  -0.0833333   0.0000000), wk =   0.0011574
        k(  134) = (   0.0000000  -0.0833333   0.0833333), wk =   0.0011574
        k(  135) = (   0.0000000  -0.0833333   0.1666667), wk =   0.0011574
        k(  136) = (   0.0000000  -0.0833333   0.2500000), wk =   0.0011574
        k(  137) = (   0.0000000  -0.0833333   0.3333333), wk =   0.0011574
        k(  138) = (   0.0000000  -0.0833333   0.4166667), wk =   0.0011574
        k(  139) = (   0.0000000  -0.0833333  -0.5000000), wk =   0.0011574
        k(  140) = (   0.0000000  -0.0833333  -0.4166667), wk =   0.0011574
        k(  141) = (   0.0000000  -0.0833333  -0.3333333), wk =   0.0011574
        k(  142) = (   0.0000000  -0.0833333  -0.2500000), wk =   0.0011574
        k(  143) = (   0.0000000  -0.0833333  -0.1666667), wk =   0.0011574
        k(  144) = (   0.0000000  -0.0833333  -0.0833333), wk =   0.0011574
        k(  145) = (   0.0833333   0.0000000   0.0000000), wk =   0.0011574
        k(  146) = (   0.0833333   0.0000000   0.0833333), wk =   0.0011574
        k(  147) = (   0.0833333   0.0000000   0.1666667), wk =   0.0011574
        k(  148) = (   0.0833333   0.0000000   0.2500000), wk =   0.0011574
        k(  149) = (   0.0833333   0.0000000   0.3333333), wk =   0.0011574
        k(  150) = (   0.0833333   0.0000000   0.4166667), wk =   0.0011574
        k(  151) = (   0.0833333   0.0000000  -0.5000000), wk =   0.0011574
        k(  152) = (   0.0833333   0.0000000  -0.4166667), wk =   0.0011574
        k(  153) = (   0.0833333   0.0000000  -0.3333333), wk =   0.0011574
        k(  154) = (   0.0833333   0.0000000  -0.2500000), wk =   0.0011574
        k(  155) = (   0.0833333   0.0000000  -0.1666667), wk =   0.0011574
        k(  156) = (   0.0833333   0.0000000  -0.0833333), wk =   0.0011574
        k(  157) = (   0.0833333   0.0833333   0.0000000), wk =   0.0011574
        k(  158) = (   0.0833333   0.0833333   0.0833333), wk =   0.0011574
        k(  159) = (   0.0833333   0.0833333   0.1666667), wk =   0.0011574
        k(  160) = (   0.0833333   0.0833333   0.2500000), wk =   0.0011574
        k(  161) = (   0.0833333   0.0833333   0.3333333), wk =   0.0011574
        k(  162) = (   0.0833333   0.0833333   0.4166667), wk =   0.0011574
        k(  163) = (   0.0833333   0.0833333  -0.5000000), wk =   0.0011574
        k(  164) = (   0.0833333   0.0833333  -0.4166667), wk =   0.0011574
        k(  165) = (   0.0833333   0.0833333  -0.3333333), wk =   0.0011574
        k(  166) = (   0.0833333   0.0833333  -0.2500000), wk =   0.0011574
        k(  167) = (   0.0833333   0.0833333  -0.1666667), wk =   0.0011574
        k(  168) = (   0.0833333   0.0833333  -0.0833333), wk =   0.0011574
        k(  169) = (   0.0833333   0.1666667   0.0000000), wk =   0.0011574
        k(  170) = (   0.0833333   0.1666667   0.0833333), wk =   0.0011574
        k(  171) = (   0.0833333   0.1666667   0.1666667), wk =   0.0011574
        k(  172) = (   0.0833333   0.1666667   0.2500000), wk =   0.0011574
        k(  173) = (   0.0833333   0.1666667   0.3333333), wk =   0.0011574
        k(  174) = (   0.0833333   0.1666667   0.4166667), wk =   0.0011574
        k(  175) = (   0.0833333   0.1666667  -0.5000000), wk =   0.0011574
        k(  176) = (   0.0833333   0.1666667  -0.4166667), wk =   0.0011574
        k(  177) = (   0.0833333   0.1666667  -0.3333333), wk =   0.0011574
        k(  178) = (   0.0833333   0.1666667  -0.2500000), wk =   0.0011574
        k(  179) = (   0.0833333   0.1666667  -0.1666667), wk =   0.0011574
        k(  180) = (   0.0833333   0.1666667  -0.0833333), wk =   0.0011574
        k(  181) = (   0.0833333   0.2500000   0.0000000), wk =   0.0011574
        k(  182) = (   0.0833333   0.2500000   0.0833333), wk =   0.0011574
        k(  183) = (   0.0833333   0.2500000   0.1666667), wk =   0.0011574
        k(  184) = (   0.0833333   0.2500000   0.2500000), wk =   0.0011574
        k(  185) = (   0.0833333   0.2500000   0.3333333), wk =   0.0011574
        k(  186) = (   0.0833333   0.2500000   0.4166667), wk =   0.0011574
        k(  187) = (   0.0833333   0.2500000  -0.5000000), wk =   0.0011574
        k(  188) = (   0.0833333   0.2500000  -0.4166667), wk =   0.0011574
        k(  189) = (   0.0833333   0.2500000  -0.3333333), wk =   0.0011574
        k(  190) = (   0.0833333   0.2500000  -0.2500000), wk =   0.0011574
        k(  191) = (   0.0833333   0.2500000  -0.1666667), wk =   0.0011574
        k(  192) = (   0.0833333   0.2500000  -0.0833333), wk =   0.0011574
        k(  193) = (   0.0833333   0.3333333   0.0000000), wk =   0.0011574
        k(  194) = (   0.0833333   0.3333333   0.0833333), wk =   0.0011574
        k(  195) = (   0.0833333   0.3333333   0.1666667), wk =   0.0011574
        k(  196) = (   0.0833333   0.3333333   0.2500000), wk =   0.0011574
        k(  197) = (   0.0833333   0.3333333   0.3333333), wk =   0.0011574
        k(  198) = (   0.0833333   0.3333333   0.4166667), wk =   0.0011574
        k(  199) = (   0.0833333   0.3333333  -0.5000000), wk =   0.0011574
        k(  200) = (   0.0833333   0.3333333  -0.4166667), wk =   0.0011574
        k(  201) = (   0.0833333   0.3333333  -0.3333333), wk =   0.0011574
        k(  202) = (   0.0833333   0.3333333  -0.2500000), wk =   0.0011574
        k(  203) = (   0.0833333   0.3333333  -0.1666667), wk =   0.0011574
        k(  204) = (   0.0833333   0.3333333  -0.0833333), wk =   0.0011574
        k(  205) = (   0.0833333   0.4166667   0.0000000), wk =   0.0011574
        k(  206) = (   0.0833333   0.4166667   0.0833333), wk =   0.0011574
        k(  207) = (   0.0833333   0.4166667   0.1666667), wk =   0.0011574
        k(  208) = (   0.0833333   0.4166667   0.2500000), wk =   0.0011574
        k(  209) = (   0.0833333   0.4166667   0.3333333), wk =   0.0011574
        k(  210) = (   0.0833333   0.4166667   0.4166667), wk =   0.0011574
        k(  211) = (   0.0833333   0.4166667  -0.5000000), wk =   0.0011574
        k(  212) = (   0.0833333   0.4166667  -0.4166667), wk =   0.0011574
        k(  213) = (   0.0833333   0.4166667  -0.3333333), wk =   0.0011574
        k(  214) = (   0.0833333   0.4166667  -0.2500000), wk =   0.0011574
        k(  215) = (   0.0833333   0.4166667  -0.1666667), wk =   0.0011574
        k(  216) = (   0.0833333   0.4166667  -0.0833333), wk =   0.0011574
        k(  217) = (   0.0833333  -0.5000000   0.0000000), wk =   0.0011574
        k(  218) = (   0.0833333  -0.5000000   0.0833333), wk =   0.0011574
        k(  219) = (   0.0833333  -0.5000000   0.1666667), wk =   0.0011574
        k(  220) = (   0.0833333  -0.5000000   0.2500000), wk =   0.0011574
        k(  221) = (   0.0833333  -0.5000000   0.3333333), wk =   0.0011574
        k(  222) = (   0.0833333  -0.5000000   0.4166667), wk =   0.0011574
        k(  223) = (   0.0833333  -0.5000000  -0.5000000), wk =   0.0011574
        k(  224) = (   0.0833333  -0.5000000  -0.4166667), wk =   0.0011574
        k(  225) = (   0.0833333  -0.5000000  -0.3333333), wk =   0.0011574
        k(  226) = (   0.0833333  -0.5000000  -0.2500000), wk =   0.0011574
        k(  227) = (   0.0833333  -0.5000000  -0.1666667), wk =   0.0011574
        k(  228) = (   0.0833333  -0.5000000  -0.0833333), wk =   0.0011574
        k(  229) = (   0.0833333  -0.4166667   0.0000000), wk =   0.0011574
        k(  230) = (   0.0833333  -0.4166667   0.0833333), wk =   0.0011574
        k(  231) = (   0.0833333  -0.4166667   0.1666667), wk =   0.0011574
        k(  232) = (   0.0833333  -0.4166667   0.2500000), wk =   0.0011574
        k(  233) = (   0.0833333  -0.4166667   0.3333333), wk =   0.0011574
        k(  234) = (   0.0833333  -0.4166667   0.4166667), wk =   0.0011574
        k(  235) = (   0.0833333  -0.4166667  -0.5000000), wk =   0.0011574
        k(  236) = (   0.0833333  -0.4166667  -0.4166667), wk =   0.0011574
        k(  237) = (   0.0833333  -0.4166667  -0.3333333), wk =   0.0011574
        k(  238) = (   0.0833333  -0.4166667  -0.2500000), wk =   0.0011574
        k(  239) = (   0.0833333  -0.4166667  -0.1666667), wk =   0.0011574
        k(  240) = (   0.0833333  -0.4166667  -0.0833333), wk =   0.0011574
        k(  241) = (   0.0833333  -0.3333333   0.0000000), wk =   0.0011574
        k(  242) = (   0.0833333  -0.3333333   0.0833333), wk =   0.0011574
        k(  243) = (   0.0833333  -0.3333333   0.1666667), wk =   0.0011574
        k(  244) = (   0.0833333  -0.3333333   0.2500000), wk =   0.0011574
        k(  245) = (   0.0833333  -0.3333333   0.3333333), wk =   0.0011574
        k(  246) = (   0.0833333  -0.3333333   0.4166667), wk =   0.0011574
        k(  247) = (   0.0833333  -0.3333333  -0.5000000), wk =   0.0011574
        k(  248) = (   0.0833333  -0.3333333  -0.4166667), wk =   0.0011574
        k(  249) = (   0.0833333  -0.3333333  -0.3333333), wk =   0.0011574
        k(  250) = (   0.0833333  -0.3333333  -0.2500000), wk =   0.0011574
        k(  251) = (   0.0833333  -0.3333333  -0.1666667), wk =   0.0011574
        k(  252) = (   0.0833333  -0.3333333  -0.0833333), wk =   0.0011574
        k(  253) = (   0.0833333  -0.2500000   0.0000000), wk =   0.0011574
        k(  254) = (   0.0833333  -0.2500000   0.0833333), wk =   0.0011574
        k(  255) = (   0.0833333  -0.2500000   0.1666667), wk =   0.0011574
        k(  256) = (   0.0833333  -0.2500000   0.2500000), wk =   0.0011574
        k(  257) = (   0.0833333  -0.2500000   0.3333333), wk =   0.0011574
        k(  258) = (   0.0833333  -0.2500000   0.4166667), wk =   0.0011574
        k(  259) = (   0.0833333  -0.2500000  -0.5000000), wk =   0.0011574
        k(  260) = (   0.0833333  -0.2500000  -0.4166667), wk =   0.0011574
        k(  261) = (   0.0833333  -0.2500000  -0.3333333), wk =   0.0011574
        k(  262) = (   0.0833333  -0.2500000  -0.2500000), wk =   0.0011574
        k(  263) = (   0.0833333  -0.2500000  -0.1666667), wk =   0.0011574
        k(  264) = (   0.0833333  -0.2500000  -0.0833333), wk =   0.0011574
        k(  265) = (   0.0833333  -0.1666667   0.0000000), wk =   0.0011574
        k(  266) = (   0.0833333  -0.1666667   0.0833333), wk =   0.0011574
        k(  267) = (   0.0833333  -0.1666667   0.1666667), wk =   0.0011574
        k(  268) = (   0.0833333  -0.1666667   0.2500000), wk =   0.0011574
        k(  269) = (   0.0833333  -0.1666667   0.3333333), wk =   0.0011574
        k(  270) = (   0.0833333  -0.1666667   0.4166667), wk =   0.0011574
        k(  271) = (   0.0833333  -0.1666667  -0.5000000), wk =   0.0011574
        k(  272) = (   0.0833333  -0.1666667  -0.4166667), wk =   0.0011574
        k(  273) = (   0.0833333  -0.1666667  -0.3333333), wk =   0.0011574
        k(  274) = (   0.0833333  -0.1666667  -0.2500000), wk =   0.0011574
        k(  275) = (   0.0833333  -0.1666667  -0.1666667), wk =   0.0011574
        k(  276) = (   0.0833333  -0.1666667  -0.0833333), wk =   0.0011574
        k(  277) = (   0.0833333  -0.0833333   0.0000000), wk =   0.0011574
        k(  278) = (   0.0833333  -0.0833333   0.0833333), wk =   0.0011574
        k(  279) = (   0.0833333  -0.0833333   0.1666667), wk =   0.0011574
        k(  280) = (   0.0833333  -0.0833333   0.2500000), wk =   0.0011574
        k(  281) = (   0.0833333  -0.0833333   0.3333333), wk =   0.0011574
        k(  282) = (   0.0833333  -0.0833333   0.4166667), wk =   0.0011574
        k(  283) = (   0.0833333  -0.0833333  -0.5000000), wk =   0.0011574
        k(  284) = (   0.0833333  -0.0833333  -0.4166667), wk =   0.0011574
        k(  285) = (   0.0833333  -0.0833333  -0.3333333), wk =   0.0011574
        k(  286) = (   0.0833333  -0.0833333  -0.2500000), wk =   0.0011574
        k(  287) = (   0.0833333  -0.0833333  -0.1666667), wk =   0.0011574
        k(  288) = (   0.0833333  -0.0833333  -0.0833333), wk =   0.0011574
        k(  289) = (   0.1666667   0.0000000   0.0000000), wk =   0.0011574
        k(  290) = (   0.1666667   0.0000000   0.0833333), wk =   0.0011574
        k(  291) = (   0.1666667   0.0000000   0.1666667), wk =   0.0011574
        k(  292) = (   0.1666667   0.0000000   0.2500000), wk =   0.0011574
        k(  293) = (   0.1666667   0.0000000   0.3333333), wk =   0.0011574
        k(  294) = (   0.1666667   0.0000000   0.4166667), wk =   0.0011574
        k(  295) = (   0.1666667   0.0000000  -0.5000000), wk =   0.0011574
        k(  296) = (   0.1666667   0.0000000  -0.4166667), wk =   0.0011574
        k(  297) = (   0.1666667   0.0000000  -0.3333333), wk =   0.0011574
        k(  298) = (   0.1666667   0.0000000  -0.2500000), wk =   0.0011574
        k(  299) = (   0.1666667   0.0000000  -0.1666667), wk =   0.0011574
        k(  300) = (   0.1666667   0.0000000  -0.0833333), wk =   0.0011574
        k(  301) = (   0.1666667   0.0833333   0.0000000), wk =   0.0011574
        k(  302) = (   0.1666667   0.0833333   0.0833333), wk =   0.0011574
        k(  303) = (   0.1666667   0.0833333   0.1666667), wk =   0.0011574
        k(  304) = (   0.1666667   0.0833333   0.2500000), wk =   0.0011574
        k(  305) = (   0.1666667   0.0833333   0.3333333), wk =   0.0011574
        k(  306) = (   0.1666667   0.0833333   0.4166667), wk =   0.0011574
        k(  307) = (   0.1666667   0.0833333  -0.5000000), wk =   0.0011574
        k(  308) = (   0.1666667   0.0833333  -0.4166667), wk =   0.0011574
        k(  309) = (   0.1666667   0.0833333  -0.3333333), wk =   0.0011574
        k(  310) = (   0.1666667   0.0833333  -0.2500000), wk =   0.0011574
        k(  311) = (   0.1666667   0.0833333  -0.1666667), wk =   0.0011574
        k(  312) = (   0.1666667   0.0833333  -0.0833333), wk =   0.0011574
        k(  313) = (   0.1666667   0.1666667   0.0000000), wk =   0.0011574
        k(  314) = (   0.1666667   0.1666667   0.0833333), wk =   0.0011574
        k(  315) = (   0.1666667   0.1666667   0.1666667), wk =   0.0011574
        k(  316) = (   0.1666667   0.1666667   0.2500000), wk =   0.0011574
        k(  317) = (   0.1666667   0.1666667   0.3333333), wk =   0.0011574
        k(  318) = (   0.1666667   0.1666667   0.4166667), wk =   0.0011574
        k(  319) = (   0.1666667   0.1666667  -0.5000000), wk =   0.0011574
        k(  320) = (   0.1666667   0.1666667  -0.4166667), wk =   0.0011574
        k(  321) = (   0.1666667   0.1666667  -0.3333333), wk =   0.0011574
        k(  322) = (   0.1666667   0.1666667  -0.2500000), wk =   0.0011574
        k(  323) = (   0.1666667   0.1666667  -0.1666667), wk =   0.0011574
        k(  324) = (   0.1666667   0.1666667  -0.0833333), wk =   0.0011574
        k(  325) = (   0.1666667   0.2500000   0.0000000), wk =   0.0011574
        k(  326) = (   0.1666667   0.2500000   0.0833333), wk =   0.0011574
        k(  327) = (   0.1666667   0.2500000   0.1666667), wk =   0.0011574
        k(  328) = (   0.1666667   0.2500000   0.2500000), wk =   0.0011574
        k(  329) = (   0.1666667   0.2500000   0.3333333), wk =   0.0011574
        k(  330) = (   0.1666667   0.2500000   0.4166667), wk =   0.0011574
        k(  331) = (   0.1666667   0.2500000  -0.5000000), wk =   0.0011574
        k(  332) = (   0.1666667   0.2500000  -0.4166667), wk =   0.0011574
        k(  333) = (   0.1666667   0.2500000  -0.3333333), wk =   0.0011574
        k(  334) = (   0.1666667   0.2500000  -0.2500000), wk =   0.0011574
        k(  335) = (   0.1666667   0.2500000  -0.1666667), wk =   0.0011574
        k(  336) = (   0.1666667   0.2500000  -0.0833333), wk =   0.0011574
        k(  337) = (   0.1666667   0.3333333   0.0000000), wk =   0.0011574
        k(  338) = (   0.1666667   0.3333333   0.0833333), wk =   0.0011574
        k(  339) = (   0.1666667   0.3333333   0.1666667), wk =   0.0011574
        k(  340) = (   0.1666667   0.3333333   0.2500000), wk =   0.0011574
        k(  341) = (   0.1666667   0.3333333   0.3333333), wk =   0.0011574
        k(  342) = (   0.1666667   0.3333333   0.4166667), wk =   0.0011574
        k(  343) = (   0.1666667   0.3333333  -0.5000000), wk =   0.0011574
        k(  344) = (   0.1666667   0.3333333  -0.4166667), wk =   0.0011574
        k(  345) = (   0.1666667   0.3333333  -0.3333333), wk =   0.0011574
        k(  346) = (   0.1666667   0.3333333  -0.2500000), wk =   0.0011574
        k(  347) = (   0.1666667   0.3333333  -0.1666667), wk =   0.0011574
        k(  348) = (   0.1666667   0.3333333  -0.0833333), wk =   0.0011574
        k(  349) = (   0.1666667   0.4166667   0.0000000), wk =   0.0011574
        k(  350) = (   0.1666667   0.4166667   0.0833333), wk =   0.0011574
        k(  351) = (   0.1666667   0.4166667   0.1666667), wk =   0.0011574
        k(  352) = (   0.1666667   0.4166667   0.2500000), wk =   0.0011574
        k(  353) = (   0.1666667   0.4166667   0.3333333), wk =   0.0011574
        k(  354) = (   0.1666667   0.4166667   0.4166667), wk =   0.0011574
        k(  355) = (   0.1666667   0.4166667  -0.5000000), wk =   0.0011574
        k(  356) = (   0.1666667   0.4166667  -0.4166667), wk =   0.0011574
        k(  357) = (   0.1666667   0.4166667  -0.3333333), wk =   0.0011574
        k(  358) = (   0.1666667   0.4166667  -0.2500000), wk =   0.0011574
        k(  359) = (   0.1666667   0.4166667  -0.1666667), wk =   0.0011574
        k(  360) = (   0.1666667   0.4166667  -0.0833333), wk =   0.0011574
        k(  361) = (   0.1666667  -0.5000000   0.0000000), wk =   0.0011574
        k(  362) = (   0.1666667  -0.5000000   0.0833333), wk =   0.0011574
        k(  363) = (   0.1666667  -0.5000000   0.1666667), wk =   0.0011574
        k(  364) = (   0.1666667  -0.5000000   0.2500000), wk =   0.0011574
        k(  365) = (   0.1666667  -0.5000000   0.3333333), wk =   0.0011574
        k(  366) = (   0.1666667  -0.5000000   0.4166667), wk =   0.0011574
        k(  367) = (   0.1666667  -0.5000000  -0.5000000), wk =   0.0011574
        k(  368) = (   0.1666667  -0.5000000  -0.4166667), wk =   0.0011574
        k(  369) = (   0.1666667  -0.5000000  -0.3333333), wk =   0.0011574
        k(  370) = (   0.1666667  -0.5000000  -0.2500000), wk =   0.0011574
        k(  371) = (   0.1666667  -0.5000000  -0.1666667), wk =   0.0011574
        k(  372) = (   0.1666667  -0.5000000  -0.0833333), wk =   0.0011574
        k(  373) = (   0.1666667  -0.4166667   0.0000000), wk =   0.0011574
        k(  374) = (   0.1666667  -0.4166667   0.0833333), wk =   0.0011574
        k(  375) = (   0.1666667  -0.4166667   0.1666667), wk =   0.0011574
        k(  376) = (   0.1666667  -0.4166667   0.2500000), wk =   0.0011574
        k(  377) = (   0.1666667  -0.4166667   0.3333333), wk =   0.0011574
        k(  378) = (   0.1666667  -0.4166667   0.4166667), wk =   0.0011574
        k(  379) = (   0.1666667  -0.4166667  -0.5000000), wk =   0.0011574
        k(  380) = (   0.1666667  -0.4166667  -0.4166667), wk =   0.0011574
        k(  381) = (   0.1666667  -0.4166667  -0.3333333), wk =   0.0011574
        k(  382) = (   0.1666667  -0.4166667  -0.2500000), wk =   0.0011574
        k(  383) = (   0.1666667  -0.4166667  -0.1666667), wk =   0.0011574
        k(  384) = (   0.1666667  -0.4166667  -0.0833333), wk =   0.0011574
        k(  385) = (   0.1666667  -0.3333333   0.0000000), wk =   0.0011574
        k(  386) = (   0.1666667  -0.3333333   0.0833333), wk =   0.0011574
        k(  387) = (   0.1666667  -0.3333333   0.1666667), wk =   0.0011574
        k(  388) = (   0.1666667  -0.3333333   0.2500000), wk =   0.0011574
        k(  389) = (   0.1666667  -0.3333333   0.3333333), wk =   0.0011574
        k(  390) = (   0.1666667  -0.3333333   0.4166667), wk =   0.0011574
        k(  391) = (   0.1666667  -0.3333333  -0.5000000), wk =   0.0011574
        k(  392) = (   0.1666667  -0.3333333  -0.4166667), wk =   0.0011574
        k(  393) = (   0.1666667  -0.3333333  -0.3333333), wk =   0.0011574
        k(  394) = (   0.1666667  -0.3333333  -0.2500000), wk =   0.0011574
        k(  395) = (   0.1666667  -0.3333333  -0.1666667), wk =   0.0011574
        k(  396) = (   0.1666667  -0.3333333  -0.0833333), wk =   0.0011574
        k(  397) = (   0.1666667  -0.2500000   0.0000000), wk =   0.0011574
        k(  398) = (   0.1666667  -0.2500000   0.0833333), wk =   0.0011574
        k(  399) = (   0.1666667  -0.2500000   0.1666667), wk =   0.0011574
        k(  400) = (   0.1666667  -0.2500000   0.2500000), wk =   0.0011574
        k(  401) = (   0.1666667  -0.2500000   0.3333333), wk =   0.0011574
        k(  402) = (   0.1666667  -0.2500000   0.4166667), wk =   0.0011574
        k(  403) = (   0.1666667  -0.2500000  -0.5000000), wk =   0.0011574
        k(  404) = (   0.1666667  -0.2500000  -0.4166667), wk =   0.0011574
        k(  405) = (   0.1666667  -0.2500000  -0.3333333), wk =   0.0011574
        k(  406) = (   0.1666667  -0.2500000  -0.2500000), wk =   0.0011574
        k(  407) = (   0.1666667  -0.2500000  -0.1666667), wk =   0.0011574
        k(  408) = (   0.1666667  -0.2500000  -0.0833333), wk =   0.0011574
        k(  409) = (   0.1666667  -0.1666667   0.0000000), wk =   0.0011574
        k(  410) = (   0.1666667  -0.1666667   0.0833333), wk =   0.0011574
        k(  411) = (   0.1666667  -0.1666667   0.1666667), wk =   0.0011574
        k(  412) = (   0.1666667  -0.1666667   0.2500000), wk =   0.0011574
        k(  413) = (   0.1666667  -0.1666667   0.3333333), wk =   0.0011574
        k(  414) = (   0.1666667  -0.1666667   0.4166667), wk =   0.0011574
        k(  415) = (   0.1666667  -0.1666667  -0.5000000), wk =   0.0011574
        k(  416) = (   0.1666667  -0.1666667  -0.4166667), wk =   0.0011574
        k(  417) = (   0.1666667  -0.1666667  -0.3333333), wk =   0.0011574
        k(  418) = (   0.1666667  -0.1666667  -0.2500000), wk =   0.0011574
        k(  419) = (   0.1666667  -0.1666667  -0.1666667), wk =   0.0011574
        k(  420) = (   0.1666667  -0.1666667  -0.0833333), wk =   0.0011574
        k(  421) = (   0.1666667  -0.0833333   0.0000000), wk =   0.0011574
        k(  422) = (   0.1666667  -0.0833333   0.0833333), wk =   0.0011574
        k(  423) = (   0.1666667  -0.0833333   0.1666667), wk =   0.0011574
        k(  424) = (   0.1666667  -0.0833333   0.2500000), wk =   0.0011574
        k(  425) = (   0.1666667  -0.0833333   0.3333333), wk =   0.0011574
        k(  426) = (   0.1666667  -0.0833333   0.4166667), wk =   0.0011574
        k(  427) = (   0.1666667  -0.0833333  -0.5000000), wk =   0.0011574
        k(  428) = (   0.1666667  -0.0833333  -0.4166667), wk =   0.0011574
        k(  429) = (   0.1666667  -0.0833333  -0.3333333), wk =   0.0011574
        k(  430) = (   0.1666667  -0.0833333  -0.2500000), wk =   0.0011574
        k(  431) = (   0.1666667  -0.0833333  -0.1666667), wk =   0.0011574
        k(  432) = (   0.1666667  -0.0833333  -0.0833333), wk =   0.0011574
        k(  433) = (   0.2500000   0.0000000   0.0000000), wk =   0.0011574
        k(  434) = (   0.2500000   0.0000000   0.0833333), wk =   0.0011574
        k(  435) = (   0.2500000   0.0000000   0.1666667), wk =   0.0011574
        k(  436) = (   0.2500000   0.0000000   0.2500000), wk =   0.0011574
        k(  437) = (   0.2500000   0.0000000   0.3333333), wk =   0.0011574
        k(  438) = (   0.2500000   0.0000000   0.4166667), wk =   0.0011574
        k(  439) = (   0.2500000   0.0000000  -0.5000000), wk =   0.0011574
        k(  440) = (   0.2500000   0.0000000  -0.4166667), wk =   0.0011574
        k(  441) = (   0.2500000   0.0000000  -0.3333333), wk =   0.0011574
        k(  442) = (   0.2500000   0.0000000  -0.2500000), wk =   0.0011574
        k(  443) = (   0.2500000   0.0000000  -0.1666667), wk =   0.0011574
        k(  444) = (   0.2500000   0.0000000  -0.0833333), wk =   0.0011574
        k(  445) = (   0.2500000   0.0833333   0.0000000), wk =   0.0011574
        k(  446) = (   0.2500000   0.0833333   0.0833333), wk =   0.0011574
        k(  447) = (   0.2500000   0.0833333   0.1666667), wk =   0.0011574
        k(  448) = (   0.2500000   0.0833333   0.2500000), wk =   0.0011574
        k(  449) = (   0.2500000   0.0833333   0.3333333), wk =   0.0011574
        k(  450) = (   0.2500000   0.0833333   0.4166667), wk =   0.0011574
        k(  451) = (   0.2500000   0.0833333  -0.5000000), wk =   0.0011574
        k(  452) = (   0.2500000   0.0833333  -0.4166667), wk =   0.0011574
        k(  453) = (   0.2500000   0.0833333  -0.3333333), wk =   0.0011574
        k(  454) = (   0.2500000   0.0833333  -0.2500000), wk =   0.0011574
        k(  455) = (   0.2500000   0.0833333  -0.1666667), wk =   0.0011574
        k(  456) = (   0.2500000   0.0833333  -0.0833333), wk =   0.0011574
        k(  457) = (   0.2500000   0.1666667   0.0000000), wk =   0.0011574
        k(  458) = (   0.2500000   0.1666667   0.0833333), wk =   0.0011574
        k(  459) = (   0.2500000   0.1666667   0.1666667), wk =   0.0011574
        k(  460) = (   0.2500000   0.1666667   0.2500000), wk =   0.0011574
        k(  461) = (   0.2500000   0.1666667   0.3333333), wk =   0.0011574
        k(  462) = (   0.2500000   0.1666667   0.4166667), wk =   0.0011574
        k(  463) = (   0.2500000   0.1666667  -0.5000000), wk =   0.0011574
        k(  464) = (   0.2500000   0.1666667  -0.4166667), wk =   0.0011574
        k(  465) = (   0.2500000   0.1666667  -0.3333333), wk =   0.0011574
        k(  466) = (   0.2500000   0.1666667  -0.2500000), wk =   0.0011574
        k(  467) = (   0.2500000   0.1666667  -0.1666667), wk =   0.0011574
        k(  468) = (   0.2500000   0.1666667  -0.0833333), wk =   0.0011574
        k(  469) = (   0.2500000   0.2500000   0.0000000), wk =   0.0011574
        k(  470) = (   0.2500000   0.2500000   0.0833333), wk =   0.0011574
        k(  471) = (   0.2500000   0.2500000   0.1666667), wk =   0.0011574
        k(  472) = (   0.2500000   0.2500000   0.2500000), wk =   0.0011574
        k(  473) = (   0.2500000   0.2500000   0.3333333), wk =   0.0011574
        k(  474) = (   0.2500000   0.2500000   0.4166667), wk =   0.0011574
        k(  475) = (   0.2500000   0.2500000  -0.5000000), wk =   0.0011574
        k(  476) = (   0.2500000   0.2500000  -0.4166667), wk =   0.0011574
        k(  477) = (   0.2500000   0.2500000  -0.3333333), wk =   0.0011574
        k(  478) = (   0.2500000   0.2500000  -0.2500000), wk =   0.0011574
        k(  479) = (   0.2500000   0.2500000  -0.1666667), wk =   0.0011574
        k(  480) = (   0.2500000   0.2500000  -0.0833333), wk =   0.0011574
        k(  481) = (   0.2500000   0.3333333   0.0000000), wk =   0.0011574
        k(  482) = (   0.2500000   0.3333333   0.0833333), wk =   0.0011574
        k(  483) = (   0.2500000   0.3333333   0.1666667), wk =   0.0011574
        k(  484) = (   0.2500000   0.3333333   0.2500000), wk =   0.0011574
        k(  485) = (   0.2500000   0.3333333   0.3333333), wk =   0.0011574
        k(  486) = (   0.2500000   0.3333333   0.4166667), wk =   0.0011574
        k(  487) = (   0.2500000   0.3333333  -0.5000000), wk =   0.0011574
        k(  488) = (   0.2500000   0.3333333  -0.4166667), wk =   0.0011574
        k(  489) = (   0.2500000   0.3333333  -0.3333333), wk =   0.0011574
        k(  490) = (   0.2500000   0.3333333  -0.2500000), wk =   0.0011574
        k(  491) = (   0.2500000   0.3333333  -0.1666667), wk =   0.0011574
        k(  492) = (   0.2500000   0.3333333  -0.0833333), wk =   0.0011574
        k(  493) = (   0.2500000   0.4166667   0.0000000), wk =   0.0011574
        k(  494) = (   0.2500000   0.4166667   0.0833333), wk =   0.0011574
        k(  495) = (   0.2500000   0.4166667   0.1666667), wk =   0.0011574
        k(  496) = (   0.2500000   0.4166667   0.2500000), wk =   0.0011574
        k(  497) = (   0.2500000   0.4166667   0.3333333), wk =   0.0011574
        k(  498) = (   0.2500000   0.4166667   0.4166667), wk =   0.0011574
        k(  499) = (   0.2500000   0.4166667  -0.5000000), wk =   0.0011574
        k(  500) = (   0.2500000   0.4166667  -0.4166667), wk =   0.0011574
        k(  501) = (   0.2500000   0.4166667  -0.3333333), wk =   0.0011574
        k(  502) = (   0.2500000   0.4166667  -0.2500000), wk =   0.0011574
        k(  503) = (   0.2500000   0.4166667  -0.1666667), wk =   0.0011574
        k(  504) = (   0.2500000   0.4166667  -0.0833333), wk =   0.0011574
        k(  505) = (   0.2500000  -0.5000000   0.0000000), wk =   0.0011574
        k(  506) = (   0.2500000  -0.5000000   0.0833333), wk =   0.0011574
        k(  507) = (   0.2500000  -0.5000000   0.1666667), wk =   0.0011574
        k(  508) = (   0.2500000  -0.5000000   0.2500000), wk =   0.0011574
        k(  509) = (   0.2500000  -0.5000000   0.3333333), wk =   0.0011574
        k(  510) = (   0.2500000  -0.5000000   0.4166667), wk =   0.0011574
        k(  511) = (   0.2500000  -0.5000000  -0.5000000), wk =   0.0011574
        k(  512) = (   0.2500000  -0.5000000  -0.4166667), wk =   0.0011574
        k(  513) = (   0.2500000  -0.5000000  -0.3333333), wk =   0.0011574
        k(  514) = (   0.2500000  -0.5000000  -0.2500000), wk =   0.0011574
        k(  515) = (   0.2500000  -0.5000000  -0.1666667), wk =   0.0011574
        k(  516) = (   0.2500000  -0.5000000  -0.0833333), wk =   0.0011574
        k(  517) = (   0.2500000  -0.4166667   0.0000000), wk =   0.0011574
        k(  518) = (   0.2500000  -0.4166667   0.0833333), wk =   0.0011574
        k(  519) = (   0.2500000  -0.4166667   0.1666667), wk =   0.0011574
        k(  520) = (   0.2500000  -0.4166667   0.2500000), wk =   0.0011574
        k(  521) = (   0.2500000  -0.4166667   0.3333333), wk =   0.0011574
        k(  522) = (   0.2500000  -0.4166667   0.4166667), wk =   0.0011574
        k(  523) = (   0.2500000  -0.4166667  -0.5000000), wk =   0.0011574
        k(  524) = (   0.2500000  -0.4166667  -0.4166667), wk =   0.0011574
        k(  525) = (   0.2500000  -0.4166667  -0.3333333), wk =   0.0011574
        k(  526) = (   0.2500000  -0.4166667  -0.2500000), wk =   0.0011574
        k(  527) = (   0.2500000  -0.4166667  -0.1666667), wk =   0.0011574
        k(  528) = (   0.2500000  -0.4166667  -0.0833333), wk =   0.0011574
        k(  529) = (   0.2500000  -0.3333333   0.0000000), wk =   0.0011574
        k(  530) = (   0.2500000  -0.3333333   0.0833333), wk =   0.0011574
        k(  531) = (   0.2500000  -0.3333333   0.1666667), wk =   0.0011574
        k(  532) = (   0.2500000  -0.3333333   0.2500000), wk =   0.0011574
        k(  533) = (   0.2500000  -0.3333333   0.3333333), wk =   0.0011574
        k(  534) = (   0.2500000  -0.3333333   0.4166667), wk =   0.0011574
        k(  535) = (   0.2500000  -0.3333333  -0.5000000), wk =   0.0011574
        k(  536) = (   0.2500000  -0.3333333  -0.4166667), wk =   0.0011574
        k(  537) = (   0.2500000  -0.3333333  -0.3333333), wk =   0.0011574
        k(  538) = (   0.2500000  -0.3333333  -0.2500000), wk =   0.0011574
        k(  539) = (   0.2500000  -0.3333333  -0.1666667), wk =   0.0011574
        k(  540) = (   0.2500000  -0.3333333  -0.0833333), wk =   0.0011574
        k(  541) = (   0.2500000  -0.2500000   0.0000000), wk =   0.0011574
        k(  542) = (   0.2500000  -0.2500000   0.0833333), wk =   0.0011574
        k(  543) = (   0.2500000  -0.2500000   0.1666667), wk =   0.0011574
        k(  544) = (   0.2500000  -0.2500000   0.2500000), wk =   0.0011574
        k(  545) = (   0.2500000  -0.2500000   0.3333333), wk =   0.0011574
        k(  546) = (   0.2500000  -0.2500000   0.4166667), wk =   0.0011574
        k(  547) = (   0.2500000  -0.2500000  -0.5000000), wk =   0.0011574
        k(  548) = (   0.2500000  -0.2500000  -0.4166667), wk =   0.0011574
        k(  549) = (   0.2500000  -0.2500000  -0.3333333), wk =   0.0011574
        k(  550) = (   0.2500000  -0.2500000  -0.2500000), wk =   0.0011574
        k(  551) = (   0.2500000  -0.2500000  -0.1666667), wk =   0.0011574
        k(  552) = (   0.2500000  -0.2500000  -0.0833333), wk =   0.0011574
        k(  553) = (   0.2500000  -0.1666667   0.0000000), wk =   0.0011574
        k(  554) = (   0.2500000  -0.1666667   0.0833333), wk =   0.0011574
        k(  555) = (   0.2500000  -0.1666667   0.1666667), wk =   0.0011574
        k(  556) = (   0.2500000  -0.1666667   0.2500000), wk =   0.0011574
        k(  557) = (   0.2500000  -0.1666667   0.3333333), wk =   0.0011574
        k(  558) = (   0.2500000  -0.1666667   0.4166667), wk =   0.0011574
        k(  559) = (   0.2500000  -0.1666667  -0.5000000), wk =   0.0011574
        k(  560) = (   0.2500000  -0.1666667  -0.4166667), wk =   0.0011574
        k(  561) = (   0.2500000  -0.1666667  -0.3333333), wk =   0.0011574
        k(  562) = (   0.2500000  -0.1666667  -0.2500000), wk =   0.0011574
        k(  563) = (   0.2500000  -0.1666667  -0.1666667), wk =   0.0011574
        k(  564) = (   0.2500000  -0.1666667  -0.0833333), wk =   0.0011574
        k(  565) = (   0.2500000  -0.0833333   0.0000000), wk =   0.0011574
        k(  566) = (   0.2500000  -0.0833333   0.0833333), wk =   0.0011574
        k(  567) = (   0.2500000  -0.0833333   0.1666667), wk =   0.0011574
        k(  568) = (   0.2500000  -0.0833333   0.2500000), wk =   0.0011574
        k(  569) = (   0.2500000  -0.0833333   0.3333333), wk =   0.0011574
        k(  570) = (   0.2500000  -0.0833333   0.4166667), wk =   0.0011574
        k(  571) = (   0.2500000  -0.0833333  -0.5000000), wk =   0.0011574
        k(  572) = (   0.2500000  -0.0833333  -0.4166667), wk =   0.0011574
        k(  573) = (   0.2500000  -0.0833333  -0.3333333), wk =   0.0011574
        k(  574) = (   0.2500000  -0.0833333  -0.2500000), wk =   0.0011574
        k(  575) = (   0.2500000  -0.0833333  -0.1666667), wk =   0.0011574
        k(  576) = (   0.2500000  -0.0833333  -0.0833333), wk =   0.0011574
        k(  577) = (   0.3333333   0.0000000   0.0000000), wk =   0.0011574
        k(  578) = (   0.3333333   0.0000000   0.0833333), wk =   0.0011574
        k(  579) = (   0.3333333   0.0000000   0.1666667), wk =   0.0011574
        k(  580) = (   0.3333333   0.0000000   0.2500000), wk =   0.0011574
        k(  581) = (   0.3333333   0.0000000   0.3333333), wk =   0.0011574
        k(  582) = (   0.3333333   0.0000000   0.4166667), wk =   0.0011574
        k(  583) = (   0.3333333   0.0000000  -0.5000000), wk =   0.0011574
        k(  584) = (   0.3333333   0.0000000  -0.4166667), wk =   0.0011574
        k(  585) = (   0.3333333   0.0000000  -0.3333333), wk =   0.0011574
        k(  586) = (   0.3333333   0.0000000  -0.2500000), wk =   0.0011574
        k(  587) = (   0.3333333   0.0000000  -0.1666667), wk =   0.0011574
        k(  588) = (   0.3333333   0.0000000  -0.0833333), wk =   0.0011574
        k(  589) = (   0.3333333   0.0833333   0.0000000), wk =   0.0011574
        k(  590) = (   0.3333333   0.0833333   0.0833333), wk =   0.0011574
        k(  591) = (   0.3333333   0.0833333   0.1666667), wk =   0.0011574
        k(  592) = (   0.3333333   0.0833333   0.2500000), wk =   0.0011574
        k(  593) = (   0.3333333   0.0833333   0.3333333), wk =   0.0011574
        k(  594) = (   0.3333333   0.0833333   0.4166667), wk =   0.0011574
        k(  595) = (   0.3333333   0.0833333  -0.5000000), wk =   0.0011574
        k(  596) = (   0.3333333   0.0833333  -0.4166667), wk =   0.0011574
        k(  597) = (   0.3333333   0.0833333  -0.3333333), wk =   0.0011574
        k(  598) = (   0.3333333   0.0833333  -0.2500000), wk =   0.0011574
        k(  599) = (   0.3333333   0.0833333  -0.1666667), wk =   0.0011574
        k(  600) = (   0.3333333   0.0833333  -0.0833333), wk =   0.0011574
        k(  601) = (   0.3333333   0.1666667   0.0000000), wk =   0.0011574
        k(  602) = (   0.3333333   0.1666667   0.0833333), wk =   0.0011574
        k(  603) = (   0.3333333   0.1666667   0.1666667), wk =   0.0011574
        k(  604) = (   0.3333333   0.1666667   0.2500000), wk =   0.0011574
        k(  605) = (   0.3333333   0.1666667   0.3333333), wk =   0.0011574
        k(  606) = (   0.3333333   0.1666667   0.4166667), wk =   0.0011574
        k(  607) = (   0.3333333   0.1666667  -0.5000000), wk =   0.0011574
        k(  608) = (   0.3333333   0.1666667  -0.4166667), wk =   0.0011574
        k(  609) = (   0.3333333   0.1666667  -0.3333333), wk =   0.0011574
        k(  610) = (   0.3333333   0.1666667  -0.2500000), wk =   0.0011574
        k(  611) = (   0.3333333   0.1666667  -0.1666667), wk =   0.0011574
        k(  612) = (   0.3333333   0.1666667  -0.0833333), wk =   0.0011574
        k(  613) = (   0.3333333   0.2500000   0.0000000), wk =   0.0011574
        k(  614) = (   0.3333333   0.2500000   0.0833333), wk =   0.0011574
        k(  615) = (   0.3333333   0.2500000   0.1666667), wk =   0.0011574
        k(  616) = (   0.3333333   0.2500000   0.2500000), wk =   0.0011574
        k(  617) = (   0.3333333   0.2500000   0.3333333), wk =   0.0011574
        k(  618) = (   0.3333333   0.2500000   0.4166667), wk =   0.0011574
        k(  619) = (   0.3333333   0.2500000  -0.5000000), wk =   0.0011574
        k(  620) = (   0.3333333   0.2500000  -0.4166667), wk =   0.0011574
        k(  621) = (   0.3333333   0.2500000  -0.3333333), wk =   0.0011574
        k(  622) = (   0.3333333   0.2500000  -0.2500000), wk =   0.0011574
        k(  623) = (   0.3333333   0.2500000  -0.1666667), wk =   0.0011574
        k(  624) = (   0.3333333   0.2500000  -0.0833333), wk =   0.0011574
        k(  625) = (   0.3333333   0.3333333   0.0000000), wk =   0.0011574
        k(  626) = (   0.3333333   0.3333333   0.0833333), wk =   0.0011574
        k(  627) = (   0.3333333   0.3333333   0.1666667), wk =   0.0011574
        k(  628) = (   0.3333333   0.3333333   0.2500000), wk =   0.0011574
        k(  629) = (   0.3333333   0.3333333   0.3333333), wk =   0.0011574
        k(  630) = (   0.3333333   0.3333333   0.4166667), wk =   0.0011574
        k(  631) = (   0.3333333   0.3333333  -0.5000000), wk =   0.0011574
        k(  632) = (   0.3333333   0.3333333  -0.4166667), wk =   0.0011574
        k(  633) = (   0.3333333   0.3333333  -0.3333333), wk =   0.0011574
        k(  634) = (   0.3333333   0.3333333  -0.2500000), wk =   0.0011574
        k(  635) = (   0.3333333   0.3333333  -0.1666667), wk =   0.0011574
        k(  636) = (   0.3333333   0.3333333  -0.0833333), wk =   0.0011574
        k(  637) = (   0.3333333   0.4166667   0.0000000), wk =   0.0011574
        k(  638) = (   0.3333333   0.4166667   0.0833333), wk =   0.0011574
        k(  639) = (   0.3333333   0.4166667   0.1666667), wk =   0.0011574
        k(  640) = (   0.3333333   0.4166667   0.2500000), wk =   0.0011574
        k(  641) = (   0.3333333   0.4166667   0.3333333), wk =   0.0011574
        k(  642) = (   0.3333333   0.4166667   0.4166667), wk =   0.0011574
        k(  643) = (   0.3333333   0.4166667  -0.5000000), wk =   0.0011574
        k(  644) = (   0.3333333   0.4166667  -0.4166667), wk =   0.0011574
        k(  645) = (   0.3333333   0.4166667  -0.3333333), wk =   0.0011574
        k(  646) = (   0.3333333   0.4166667  -0.2500000), wk =   0.0011574
        k(  647) = (   0.3333333   0.4166667  -0.1666667), wk =   0.0011574
        k(  648) = (   0.3333333   0.4166667  -0.0833333), wk =   0.0011574
        k(  649) = (   0.3333333  -0.5000000   0.0000000), wk =   0.0011574
        k(  650) = (   0.3333333  -0.5000000   0.0833333), wk =   0.0011574
        k(  651) = (   0.3333333  -0.5000000   0.1666667), wk =   0.0011574
        k(  652) = (   0.3333333  -0.5000000   0.2500000), wk =   0.0011574
        k(  653) = (   0.3333333  -0.5000000   0.3333333), wk =   0.0011574
        k(  654) = (   0.3333333  -0.5000000   0.4166667), wk =   0.0011574
        k(  655) = (   0.3333333  -0.5000000  -0.5000000), wk =   0.0011574
        k(  656) = (   0.3333333  -0.5000000  -0.4166667), wk =   0.0011574
        k(  657) = (   0.3333333  -0.5000000  -0.3333333), wk =   0.0011574
        k(  658) = (   0.3333333  -0.5000000  -0.2500000), wk =   0.0011574
        k(  659) = (   0.3333333  -0.5000000  -0.1666667), wk =   0.0011574
        k(  660) = (   0.3333333  -0.5000000  -0.0833333), wk =   0.0011574
        k(  661) = (   0.3333333  -0.4166667   0.0000000), wk =   0.0011574
        k(  662) = (   0.3333333  -0.4166667   0.0833333), wk =   0.0011574
        k(  663) = (   0.3333333  -0.4166667   0.1666667), wk =   0.0011574
        k(  664) = (   0.3333333  -0.4166667   0.2500000), wk =   0.0011574
        k(  665) = (   0.3333333  -0.4166667   0.3333333), wk =   0.0011574
        k(  666) = (   0.3333333  -0.4166667   0.4166667), wk =   0.0011574
        k(  667) = (   0.3333333  -0.4166667  -0.5000000), wk =   0.0011574
        k(  668) = (   0.3333333  -0.4166667  -0.4166667), wk =   0.0011574
        k(  669) = (   0.3333333  -0.4166667  -0.3333333), wk =   0.0011574
        k(  670) = (   0.3333333  -0.4166667  -0.2500000), wk =   0.0011574
        k(  671) = (   0.3333333  -0.4166667  -0.1666667), wk =   0.0011574
        k(  672) = (   0.3333333  -0.4166667  -0.0833333), wk =   0.0011574
        k(  673) = (   0.3333333  -0.3333333   0.0000000), wk =   0.0011574
        k(  674) = (   0.3333333  -0.3333333   0.0833333), wk =   0.0011574
        k(  675) = (   0.3333333  -0.3333333   0.1666667), wk =   0.0011574
        k(  676) = (   0.3333333  -0.3333333   0.2500000), wk =   0.0011574
        k(  677) = (   0.3333333  -0.3333333   0.3333333), wk =   0.0011574
        k(  678) = (   0.3333333  -0.3333333   0.4166667), wk =   0.0011574
        k(  679) = (   0.3333333  -0.3333333  -0.5000000), wk =   0.0011574
        k(  680) = (   0.3333333  -0.3333333  -0.4166667), wk =   0.0011574
        k(  681) = (   0.3333333  -0.3333333  -0.3333333), wk =   0.0011574
        k(  682) = (   0.3333333  -0.3333333  -0.2500000), wk =   0.0011574
        k(  683) = (   0.3333333  -0.3333333  -0.1666667), wk =   0.0011574
        k(  684) = (   0.3333333  -0.3333333  -0.0833333), wk =   0.0011574
        k(  685) = (   0.3333333  -0.2500000   0.0000000), wk =   0.0011574
        k(  686) = (   0.3333333  -0.2500000   0.0833333), wk =   0.0011574
        k(  687) = (   0.3333333  -0.2500000   0.1666667), wk =   0.0011574
        k(  688) = (   0.3333333  -0.2500000   0.2500000), wk =   0.0011574
        k(  689) = (   0.3333333  -0.2500000   0.3333333), wk =   0.0011574
        k(  690) = (   0.3333333  -0.2500000   0.4166667), wk =   0.0011574
        k(  691) = (   0.3333333  -0.2500000  -0.5000000), wk =   0.0011574
        k(  692) = (   0.3333333  -0.2500000  -0.4166667), wk =   0.0011574
        k(  693) = (   0.3333333  -0.2500000  -0.3333333), wk =   0.0011574
        k(  694) = (   0.3333333  -0.2500000  -0.2500000), wk =   0.0011574
        k(  695) = (   0.3333333  -0.2500000  -0.1666667), wk =   0.0011574
        k(  696) = (   0.3333333  -0.2500000  -0.0833333), wk =   0.0011574
        k(  697) = (   0.3333333  -0.1666667   0.0000000), wk =   0.0011574
        k(  698) = (   0.3333333  -0.1666667   0.0833333), wk =   0.0011574
        k(  699) = (   0.3333333  -0.1666667   0.1666667), wk =   0.0011574
        k(  700) = (   0.3333333  -0.1666667   0.2500000), wk =   0.0011574
        k(  701) = (   0.3333333  -0.1666667   0.3333333), wk =   0.0011574
        k(  702) = (   0.3333333  -0.1666667   0.4166667), wk =   0.0011574
        k(  703) = (   0.3333333  -0.1666667  -0.5000000), wk =   0.0011574
        k(  704) = (   0.3333333  -0.1666667  -0.4166667), wk =   0.0011574
        k(  705) = (   0.3333333  -0.1666667  -0.3333333), wk =   0.0011574
        k(  706) = (   0.3333333  -0.1666667  -0.2500000), wk =   0.0011574
        k(  707) = (   0.3333333  -0.1666667  -0.1666667), wk =   0.0011574
        k(  708) = (   0.3333333  -0.1666667  -0.0833333), wk =   0.0011574
        k(  709) = (   0.3333333  -0.0833333   0.0000000), wk =   0.0011574
        k(  710) = (   0.3333333  -0.0833333   0.0833333), wk =   0.0011574
        k(  711) = (   0.3333333  -0.0833333   0.1666667), wk =   0.0011574
        k(  712) = (   0.3333333  -0.0833333   0.2500000), wk =   0.0011574
        k(  713) = (   0.3333333  -0.0833333   0.3333333), wk =   0.0011574
        k(  714) = (   0.3333333  -0.0833333   0.4166667), wk =   0.0011574
        k(  715) = (   0.3333333  -0.0833333  -0.5000000), wk =   0.0011574
        k(  716) = (   0.3333333  -0.0833333  -0.4166667), wk =   0.0011574
        k(  717) = (   0.3333333  -0.0833333  -0.3333333), wk =   0.0011574
        k(  718) = (   0.3333333  -0.0833333  -0.2500000), wk =   0.0011574
        k(  719) = (   0.3333333  -0.0833333  -0.1666667), wk =   0.0011574
        k(  720) = (   0.3333333  -0.0833333  -0.0833333), wk =   0.0011574
        k(  721) = (   0.4166667   0.0000000   0.0000000), wk =   0.0011574
        k(  722) = (   0.4166667   0.0000000   0.0833333), wk =   0.0011574
        k(  723) = (   0.4166667   0.0000000   0.1666667), wk =   0.0011574
        k(  724) = (   0.4166667   0.0000000   0.2500000), wk =   0.0011574
        k(  725) = (   0.4166667   0.0000000   0.3333333), wk =   0.0011574
        k(  726) = (   0.4166667   0.0000000   0.4166667), wk =   0.0011574
        k(  727) = (   0.4166667   0.0000000  -0.5000000), wk =   0.0011574
        k(  728) = (   0.4166667   0.0000000  -0.4166667), wk =   0.0011574
        k(  729) = (   0.4166667   0.0000000  -0.3333333), wk =   0.0011574
        k(  730) = (   0.4166667   0.0000000  -0.2500000), wk =   0.0011574
        k(  731) = (   0.4166667   0.0000000  -0.1666667), wk =   0.0011574
        k(  732) = (   0.4166667   0.0000000  -0.0833333), wk =   0.0011574
        k(  733) = (   0.4166667   0.0833333   0.0000000), wk =   0.0011574
        k(  734) = (   0.4166667   0.0833333   0.0833333), wk =   0.0011574
        k(  735) = (   0.4166667   0.0833333   0.1666667), wk =   0.0011574
        k(  736) = (   0.4166667   0.0833333   0.2500000), wk =   0.0011574
        k(  737) = (   0.4166667   0.0833333   0.3333333), wk =   0.0011574
        k(  738) = (   0.4166667   0.0833333   0.4166667), wk =   0.0011574
        k(  739) = (   0.4166667   0.0833333  -0.5000000), wk =   0.0011574
        k(  740) = (   0.4166667   0.0833333  -0.4166667), wk =   0.0011574
        k(  741) = (   0.4166667   0.0833333  -0.3333333), wk =   0.0011574
        k(  742) = (   0.4166667   0.0833333  -0.2500000), wk =   0.0011574
        k(  743) = (   0.4166667   0.0833333  -0.1666667), wk =   0.0011574
        k(  744) = (   0.4166667   0.0833333  -0.0833333), wk =   0.0011574
        k(  745) = (   0.4166667   0.1666667   0.0000000), wk =   0.0011574
        k(  746) = (   0.4166667   0.1666667   0.0833333), wk =   0.0011574
        k(  747) = (   0.4166667   0.1666667   0.1666667), wk =   0.0011574
        k(  748) = (   0.4166667   0.1666667   0.2500000), wk =   0.0011574
        k(  749) = (   0.4166667   0.1666667   0.3333333), wk =   0.0011574
        k(  750) = (   0.4166667   0.1666667   0.4166667), wk =   0.0011574
        k(  751) = (   0.4166667   0.1666667  -0.5000000), wk =   0.0011574
        k(  752) = (   0.4166667   0.1666667  -0.4166667), wk =   0.0011574
        k(  753) = (   0.4166667   0.1666667  -0.3333333), wk =   0.0011574
        k(  754) = (   0.4166667   0.1666667  -0.2500000), wk =   0.0011574
        k(  755) = (   0.4166667   0.1666667  -0.1666667), wk =   0.0011574
        k(  756) = (   0.4166667   0.1666667  -0.0833333), wk =   0.0011574
        k(  757) = (   0.4166667   0.2500000   0.0000000), wk =   0.0011574
        k(  758) = (   0.4166667   0.2500000   0.0833333), wk =   0.0011574
        k(  759) = (   0.4166667   0.2500000   0.1666667), wk =   0.0011574
        k(  760) = (   0.4166667   0.2500000   0.2500000), wk =   0.0011574
        k(  761) = (   0.4166667   0.2500000   0.3333333), wk =   0.0011574
        k(  762) = (   0.4166667   0.2500000   0.4166667), wk =   0.0011574
        k(  763) = (   0.4166667   0.2500000  -0.5000000), wk =   0.0011574
        k(  764) = (   0.4166667   0.2500000  -0.4166667), wk =   0.0011574
        k(  765) = (   0.4166667   0.2500000  -0.3333333), wk =   0.0011574
        k(  766) = (   0.4166667   0.2500000  -0.2500000), wk =   0.0011574
        k(  767) = (   0.4166667   0.2500000  -0.1666667), wk =   0.0011574
        k(  768) = (   0.4166667   0.2500000  -0.0833333), wk =   0.0011574
        k(  769) = (   0.4166667   0.3333333   0.0000000), wk =   0.0011574
        k(  770) = (   0.4166667   0.3333333   0.0833333), wk =   0.0011574
        k(  771) = (   0.4166667   0.3333333   0.1666667), wk =   0.0011574
        k(  772) = (   0.4166667   0.3333333   0.2500000), wk =   0.0011574
        k(  773) = (   0.4166667   0.3333333   0.3333333), wk =   0.0011574
        k(  774) = (   0.4166667   0.3333333   0.4166667), wk =   0.0011574
        k(  775) = (   0.4166667   0.3333333  -0.5000000), wk =   0.0011574
        k(  776) = (   0.4166667   0.3333333  -0.4166667), wk =   0.0011574
        k(  777) = (   0.4166667   0.3333333  -0.3333333), wk =   0.0011574
        k(  778) = (   0.4166667   0.3333333  -0.2500000), wk =   0.0011574
        k(  779) = (   0.4166667   0.3333333  -0.1666667), wk =   0.0011574
        k(  780) = (   0.4166667   0.3333333  -0.0833333), wk =   0.0011574
        k(  781) = (   0.4166667   0.4166667   0.0000000), wk =   0.0011574
        k(  782) = (   0.4166667   0.4166667   0.0833333), wk =   0.0011574
        k(  783) = (   0.4166667   0.4166667   0.1666667), wk =   0.0011574
        k(  784) = (   0.4166667   0.4166667   0.2500000), wk =   0.0011574
        k(  785) = (   0.4166667   0.4166667   0.3333333), wk =   0.0011574
        k(  786) = (   0.4166667   0.4166667   0.4166667), wk =   0.0011574
        k(  787) = (   0.4166667   0.4166667  -0.5000000), wk =   0.0011574
        k(  788) = (   0.4166667   0.4166667  -0.4166667), wk =   0.0011574
        k(  789) = (   0.4166667   0.4166667  -0.3333333), wk =   0.0011574
        k(  790) = (   0.4166667   0.4166667  -0.2500000), wk =   0.0011574
        k(  791) = (   0.4166667   0.4166667  -0.1666667), wk =   0.0011574
        k(  792) = (   0.4166667   0.4166667  -0.0833333), wk =   0.0011574
        k(  793) = (   0.4166667  -0.5000000   0.0000000), wk =   0.0011574
        k(  794) = (   0.4166667  -0.5000000   0.0833333), wk =   0.0011574
        k(  795) = (   0.4166667  -0.5000000   0.1666667), wk =   0.0011574
        k(  796) = (   0.4166667  -0.5000000   0.2500000), wk =   0.0011574
        k(  797) = (   0.4166667  -0.5000000   0.3333333), wk =   0.0011574
        k(  798) = (   0.4166667  -0.5000000   0.4166667), wk =   0.0011574
        k(  799) = (   0.4166667  -0.5000000  -0.5000000), wk =   0.0011574
        k(  800) = (   0.4166667  -0.5000000  -0.4166667), wk =   0.0011574
        k(  801) = (   0.4166667  -0.5000000  -0.3333333), wk =   0.0011574
        k(  802) = (   0.4166667  -0.5000000  -0.2500000), wk =   0.0011574
        k(  803) = (   0.4166667  -0.5000000  -0.1666667), wk =   0.0011574
        k(  804) = (   0.4166667  -0.5000000  -0.0833333), wk =   0.0011574
        k(  805) = (   0.4166667  -0.4166667   0.0000000), wk =   0.0011574
        k(  806) = (   0.4166667  -0.4166667   0.0833333), wk =   0.0011574
        k(  807) = (   0.4166667  -0.4166667   0.1666667), wk =   0.0011574
        k(  808) = (   0.4166667  -0.4166667   0.2500000), wk =   0.0011574
        k(  809) = (   0.4166667  -0.4166667   0.3333333), wk =   0.0011574
        k(  810) = (   0.4166667  -0.4166667   0.4166667), wk =   0.0011574
        k(  811) = (   0.4166667  -0.4166667  -0.5000000), wk =   0.0011574
        k(  812) = (   0.4166667  -0.4166667  -0.4166667), wk =   0.0011574
        k(  813) = (   0.4166667  -0.4166667  -0.3333333), wk =   0.0011574
        k(  814) = (   0.4166667  -0.4166667  -0.2500000), wk =   0.0011574
        k(  815) = (   0.4166667  -0.4166667  -0.1666667), wk =   0.0011574
        k(  816) = (   0.4166667  -0.4166667  -0.0833333), wk =   0.0011574
        k(  817) = (   0.4166667  -0.3333333   0.0000000), wk =   0.0011574
        k(  818) = (   0.4166667  -0.3333333   0.0833333), wk =   0.0011574
        k(  819) = (   0.4166667  -0.3333333   0.1666667), wk =   0.0011574
        k(  820) = (   0.4166667  -0.3333333   0.2500000), wk =   0.0011574
        k(  821) = (   0.4166667  -0.3333333   0.3333333), wk =   0.0011574
        k(  822) = (   0.4166667  -0.3333333   0.4166667), wk =   0.0011574
        k(  823) = (   0.4166667  -0.3333333  -0.5000000), wk =   0.0011574
        k(  824) = (   0.4166667  -0.3333333  -0.4166667), wk =   0.0011574
        k(  825) = (   0.4166667  -0.3333333  -0.3333333), wk =   0.0011574
        k(  826) = (   0.4166667  -0.3333333  -0.2500000), wk =   0.0011574
        k(  827) = (   0.4166667  -0.3333333  -0.1666667), wk =   0.0011574
        k(  828) = (   0.4166667  -0.3333333  -0.0833333), wk =   0.0011574
        k(  829) = (   0.4166667  -0.2500000   0.0000000), wk =   0.0011574
        k(  830) = (   0.4166667  -0.2500000   0.0833333), wk =   0.0011574
        k(  831) = (   0.4166667  -0.2500000   0.1666667), wk =   0.0011574
        k(  832) = (   0.4166667  -0.2500000   0.2500000), wk =   0.0011574
        k(  833) = (   0.4166667  -0.2500000   0.3333333), wk =   0.0011574
        k(  834) = (   0.4166667  -0.2500000   0.4166667), wk =   0.0011574
        k(  835) = (   0.4166667  -0.2500000  -0.5000000), wk =   0.0011574
        k(  836) = (   0.4166667  -0.2500000  -0.4166667), wk =   0.0011574
        k(  837) = (   0.4166667  -0.2500000  -0.3333333), wk =   0.0011574
        k(  838) = (   0.4166667  -0.2500000  -0.2500000), wk =   0.0011574
        k(  839) = (   0.4166667  -0.2500000  -0.1666667), wk =   0.0011574
        k(  840) = (   0.4166667  -0.2500000  -0.0833333), wk =   0.0011574
        k(  841) = (   0.4166667  -0.1666667   0.0000000), wk =   0.0011574
        k(  842) = (   0.4166667  -0.1666667   0.0833333), wk =   0.0011574
        k(  843) = (   0.4166667  -0.1666667   0.1666667), wk =   0.0011574
        k(  844) = (   0.4166667  -0.1666667   0.2500000), wk =   0.0011574
        k(  845) = (   0.4166667  -0.1666667   0.3333333), wk =   0.0011574
        k(  846) = (   0.4166667  -0.1666667   0.4166667), wk =   0.0011574
        k(  847) = (   0.4166667  -0.1666667  -0.5000000), wk =   0.0011574
        k(  848) = (   0.4166667  -0.1666667  -0.4166667), wk =   0.0011574
        k(  849) = (   0.4166667  -0.1666667  -0.3333333), wk =   0.0011574
        k(  850) = (   0.4166667  -0.1666667  -0.2500000), wk =   0.0011574
        k(  851) = (   0.4166667  -0.1666667  -0.1666667), wk =   0.0011574
        k(  852) = (   0.4166667  -0.1666667  -0.0833333), wk =   0.0011574
        k(  853) = (   0.4166667  -0.0833333   0.0000000), wk =   0.0011574
        k(  854) = (   0.4166667  -0.0833333   0.0833333), wk =   0.0011574
        k(  855) = (   0.4166667  -0.0833333   0.1666667), wk =   0.0011574
        k(  856) = (   0.4166667  -0.0833333   0.2500000), wk =   0.0011574
        k(  857) = (   0.4166667  -0.0833333   0.3333333), wk =   0.0011574
        k(  858) = (   0.4166667  -0.0833333   0.4166667), wk =   0.0011574
        k(  859) = (   0.4166667  -0.0833333  -0.5000000), wk =   0.0011574
        k(  860) = (   0.4166667  -0.0833333  -0.4166667), wk =   0.0011574
        k(  861) = (   0.4166667  -0.0833333  -0.3333333), wk =   0.0011574
        k(  862) = (   0.4166667  -0.0833333  -0.2500000), wk =   0.0011574
        k(  863) = (   0.4166667  -0.0833333  -0.1666667), wk =   0.0011574
        k(  864) = (   0.4166667  -0.0833333  -0.0833333), wk =   0.0011574
        k(  865) = (  -0.5000000   0.0000000   0.0000000), wk =   0.0011574
        k(  866) = (  -0.5000000   0.0000000   0.0833333), wk =   0.0011574
        k(  867) = (  -0.5000000   0.0000000   0.1666667), wk =   0.0011574
        k(  868) = (  -0.5000000   0.0000000   0.2500000), wk =   0.0011574
        k(  869) = (  -0.5000000   0.0000000   0.3333333), wk =   0.0011574
        k(  870) = (  -0.5000000   0.0000000   0.4166667), wk =   0.0011574
        k(  871) = (  -0.5000000   0.0000000  -0.5000000), wk =   0.0011574
        k(  872) = (  -0.5000000   0.0000000  -0.4166667), wk =   0.0011574
        k(  873) = (  -0.5000000   0.0000000  -0.3333333), wk =   0.0011574
        k(  874) = (  -0.5000000   0.0000000  -0.2500000), wk =   0.0011574
        k(  875) = (  -0.5000000   0.0000000  -0.1666667), wk =   0.0011574
        k(  876) = (  -0.5000000   0.0000000  -0.0833333), wk =   0.0011574
        k(  877) = (  -0.5000000   0.0833333   0.0000000), wk =   0.0011574
        k(  878) = (  -0.5000000   0.0833333   0.0833333), wk =   0.0011574
        k(  879) = (  -0.5000000   0.0833333   0.1666667), wk =   0.0011574
        k(  880) = (  -0.5000000   0.0833333   0.2500000), wk =   0.0011574
        k(  881) = (  -0.5000000   0.0833333   0.3333333), wk =   0.0011574
        k(  882) = (  -0.5000000   0.0833333   0.4166667), wk =   0.0011574
        k(  883) = (  -0.5000000   0.0833333  -0.5000000), wk =   0.0011574
        k(  884) = (  -0.5000000   0.0833333  -0.4166667), wk =   0.0011574
        k(  885) = (  -0.5000000   0.0833333  -0.3333333), wk =   0.0011574
        k(  886) = (  -0.5000000   0.0833333  -0.2500000), wk =   0.0011574
        k(  887) = (  -0.5000000   0.0833333  -0.1666667), wk =   0.0011574
        k(  888) = (  -0.5000000   0.0833333  -0.0833333), wk =   0.0011574
        k(  889) = (  -0.5000000   0.1666667   0.0000000), wk =   0.0011574
        k(  890) = (  -0.5000000   0.1666667   0.0833333), wk =   0.0011574
        k(  891) = (  -0.5000000   0.1666667   0.1666667), wk =   0.0011574
        k(  892) = (  -0.5000000   0.1666667   0.2500000), wk =   0.0011574
        k(  893) = (  -0.5000000   0.1666667   0.3333333), wk =   0.0011574
        k(  894) = (  -0.5000000   0.1666667   0.4166667), wk =   0.0011574
        k(  895) = (  -0.5000000   0.1666667  -0.5000000), wk =   0.0011574
        k(  896) = (  -0.5000000   0.1666667  -0.4166667), wk =   0.0011574
        k(  897) = (  -0.5000000   0.1666667  -0.3333333), wk =   0.0011574
        k(  898) = (  -0.5000000   0.1666667  -0.2500000), wk =   0.0011574
        k(  899) = (  -0.5000000   0.1666667  -0.1666667), wk =   0.0011574
        k(  900) = (  -0.5000000   0.1666667  -0.0833333), wk =   0.0011574
        k(  901) = (  -0.5000000   0.2500000   0.0000000), wk =   0.0011574
        k(  902) = (  -0.5000000   0.2500000   0.0833333), wk =   0.0011574
        k(  903) = (  -0.5000000   0.2500000   0.1666667), wk =   0.0011574
        k(  904) = (  -0.5000000   0.2500000   0.2500000), wk =   0.0011574
        k(  905) = (  -0.5000000   0.2500000   0.3333333), wk =   0.0011574
        k(  906) = (  -0.5000000   0.2500000   0.4166667), wk =   0.0011574
        k(  907) = (  -0.5000000   0.2500000  -0.5000000), wk =   0.0011574
        k(  908) = (  -0.5000000   0.2500000  -0.4166667), wk =   0.0011574
        k(  909) = (  -0.5000000   0.2500000  -0.3333333), wk =   0.0011574
        k(  910) = (  -0.5000000   0.2500000  -0.2500000), wk =   0.0011574
        k(  911) = (  -0.5000000   0.2500000  -0.1666667), wk =   0.0011574
        k(  912) = (  -0.5000000   0.2500000  -0.0833333), wk =   0.0011574
        k(  913) = (  -0.5000000   0.3333333   0.0000000), wk =   0.0011574
        k(  914) = (  -0.5000000   0.3333333   0.0833333), wk =   0.0011574
        k(  915) = (  -0.5000000   0.3333333   0.1666667), wk =   0.0011574
        k(  916) = (  -0.5000000   0.3333333   0.2500000), wk =   0.0011574
        k(  917) = (  -0.5000000   0.3333333   0.3333333), wk =   0.0011574
        k(  918) = (  -0.5000000   0.3333333   0.4166667), wk =   0.0011574
        k(  919) = (  -0.5000000   0.3333333  -0.5000000), wk =   0.0011574
        k(  920) = (  -0.5000000   0.3333333  -0.4166667), wk =   0.0011574
        k(  921) = (  -0.5000000   0.3333333  -0.3333333), wk =   0.0011574
        k(  922) = (  -0.5000000   0.3333333  -0.2500000), wk =   0.0011574
        k(  923) = (  -0.5000000   0.3333333  -0.1666667), wk =   0.0011574
        k(  924) = (  -0.5000000   0.3333333  -0.0833333), wk =   0.0011574
        k(  925) = (  -0.5000000   0.4166667   0.0000000), wk =   0.0011574
        k(  926) = (  -0.5000000   0.4166667   0.0833333), wk =   0.0011574
        k(  927) = (  -0.5000000   0.4166667   0.1666667), wk =   0.0011574
        k(  928) = (  -0.5000000   0.4166667   0.2500000), wk =   0.0011574
        k(  929) = (  -0.5000000   0.4166667   0.3333333), wk =   0.0011574
        k(  930) = (  -0.5000000   0.4166667   0.4166667), wk =   0.0011574
        k(  931) = (  -0.5000000   0.4166667  -0.5000000), wk =   0.0011574
        k(  932) = (  -0.5000000   0.4166667  -0.4166667), wk =   0.0011574
        k(  933) = (  -0.5000000   0.4166667  -0.3333333), wk =   0.0011574
        k(  934) = (  -0.5000000   0.4166667  -0.2500000), wk =   0.0011574
        k(  935) = (  -0.5000000   0.4166667  -0.1666667), wk =   0.0011574
        k(  936) = (  -0.5000000   0.4166667  -0.0833333), wk =   0.0011574
        k(  937) = (  -0.5000000  -0.5000000   0.0000000), wk =   0.0011574
        k(  938) = (  -0.5000000  -0.5000000   0.0833333), wk =   0.0011574
        k(  939) = (  -0.5000000  -0.5000000   0.1666667), wk =   0.0011574
        k(  940) = (  -0.5000000  -0.5000000   0.2500000), wk =   0.0011574
        k(  941) = (  -0.5000000  -0.5000000   0.3333333), wk =   0.0011574
        k(  942) = (  -0.5000000  -0.5000000   0.4166667), wk =   0.0011574
        k(  943) = (  -0.5000000  -0.5000000  -0.5000000), wk =   0.0011574
        k(  944) = (  -0.5000000  -0.5000000  -0.4166667), wk =   0.0011574
        k(  945) = (  -0.5000000  -0.5000000  -0.3333333), wk =   0.0011574
        k(  946) = (  -0.5000000  -0.5000000  -0.2500000), wk =   0.0011574
        k(  947) = (  -0.5000000  -0.5000000  -0.1666667), wk =   0.0011574
        k(  948) = (  -0.5000000  -0.5000000  -0.0833333), wk =   0.0011574
        k(  949) = (  -0.5000000  -0.4166667   0.0000000), wk =   0.0011574
        k(  950) = (  -0.5000000  -0.4166667   0.0833333), wk =   0.0011574
        k(  951) = (  -0.5000000  -0.4166667   0.1666667), wk =   0.0011574
        k(  952) = (  -0.5000000  -0.4166667   0.2500000), wk =   0.0011574
        k(  953) = (  -0.5000000  -0.4166667   0.3333333), wk =   0.0011574
        k(  954) = (  -0.5000000  -0.4166667   0.4166667), wk =   0.0011574
        k(  955) = (  -0.5000000  -0.4166667  -0.5000000), wk =   0.0011574
        k(  956) = (  -0.5000000  -0.4166667  -0.4166667), wk =   0.0011574
        k(  957) = (  -0.5000000  -0.4166667  -0.3333333), wk =   0.0011574
        k(  958) = (  -0.5000000  -0.4166667  -0.2500000), wk =   0.0011574
        k(  959) = (  -0.5000000  -0.4166667  -0.1666667), wk =   0.0011574
        k(  960) = (  -0.5000000  -0.4166667  -0.0833333), wk =   0.0011574
        k(  961) = (  -0.5000000  -0.3333333   0.0000000), wk =   0.0011574
        k(  962) = (  -0.5000000  -0.3333333   0.0833333), wk =   0.0011574
        k(  963) = (  -0.5000000  -0.3333333   0.1666667), wk =   0.0011574
        k(  964) = (  -0.5000000  -0.3333333   0.2500000), wk =   0.0011574
        k(  965) = (  -0.5000000  -0.3333333   0.3333333), wk =   0.0011574
        k(  966) = (  -0.5000000  -0.3333333   0.4166667), wk =   0.0011574
        k(  967) = (  -0.5000000  -0.3333333  -0.5000000), wk =   0.0011574
        k(  968) = (  -0.5000000  -0.3333333  -0.4166667), wk =   0.0011574
        k(  969) = (  -0.5000000  -0.3333333  -0.3333333), wk =   0.0011574
        k(  970) = (  -0.5000000  -0.3333333  -0.2500000), wk =   0.0011574
        k(  971) = (  -0.5000000  -0.3333333  -0.1666667), wk =   0.0011574
        k(  972) = (  -0.5000000  -0.3333333  -0.0833333), wk =   0.0011574
        k(  973) = (  -0.5000000  -0.2500000   0.0000000), wk =   0.0011574
        k(  974) = (  -0.5000000  -0.2500000   0.0833333), wk =   0.0011574
[...]

          k =-0.0833-0.4167 0.0833 (  1333 PWs)   bands (ev):

   -53.2720 -27.1336 -27.1014 -27.1014 -21.8553  -7.2051  -5.8721  -5.8559
    -3.8642  -3.7651  -3.3469   5.9696   7.2070   7.3654   7.5040   7.7553
     8.7354   8.9719   9.3517   9.5908  12.0805  13.4740  13.4870  14.2801
    16.2765

          k =-0.0833-0.4167 0.1667 (  1326 PWs)   bands (ev):

   -53.2718 -27.1331 -27.1077 -27.1011 -21.8509  -7.0971  -5.9351  -5.8587
    -3.8725  -3.6971  -3.3953   5.9493   6.8916   7.1837   7.3485   7.6729
     8.7780   9.0320   9.4105   9.4485  12.4225  13.4799  13.5065  14.6504
    16.5387

          k =-0.0833-0.4167 0.2500 (  1333 PWs)   bands (ev):

   -53.2717 -27.1324 -27.1164 -27.1007 -21.8450  -6.9337  -6.0352  -5.8608
    -3.8587  -3.6353  -3.4531   5.9119   6.4901   6.7925   7.3419   7.6287
     8.5859   8.9824   9.2440   9.8895  12.8396  13.4881  13.5775  14.9398
    16.9791

          k =-0.0833-0.4167 0.3333 (  1336 PWs)   bands (ev):

   -53.2715 -27.1318 -27.1250 -27.1003 -21.8390  -6.7406  -6.1265  -5.8996
    -3.8353  -3.5905  -3.4979   5.8392   6.1736   6.3923   7.3482   7.5582
     8.4207   9.0187   9.1630  10.2000  13.2231  13.4942  13.7057  15.0917
    17.4612

          k =-0.0833-0.4167 0.4167 (  1330 PWs)   bands (ev):

   -53.2713 -27.1314 -27.1312 -27.1000 -21.8346  -6.5627  -6.1751  -5.9833
    -3.8160  -3.5629  -3.5218   5.7280   5.9430   6.1800   7.3695   7.4799
     8.3214   9.0616   9.1418  10.3688  13.4804  13.5101  13.8360  15.1570
    17.8160

          k =-0.0833-0.4167-0.5000 (  1330 PWs)   bands (ev):

   -53.2713 -27.1336 -27.1311 -27.0999 -21.8330  -6.4840  -6.1662  -6.0546
    -3.8089  -3.5497  -3.5321   5.6677   5.8509   6.1346   7.3994   7.4275
     8.2870   9.0936   9.1266  10.4205  13.4966  13.5924  13.8915  15.1745
    17.9440

          k =-0.0833-0.4167-0.4167 (  1330 PWs)   bands (ev):

   -53.2713 -27.1314 -27.1312 -27.1000 -21.8346  -6.5627  -6.1751  -5.9833
    -3.8160  -3.5629  -3.5218   5.7280   5.9430   6.1800   7.3695   7.4799
     8.3214   9.0616   9.1418  10.3688  13.4804  13.5101  13.8360  15.1570
    17.8160

          k =-0.0833-0.4167-0.3333 (  1336 PWs)   bands (ev):

   -53.2715 -27.1318 -27.1250 -27.1003 -21.8390  -6.7406  -6.1265  -5.8996
    -3.8353  -3.5905  -3.4979   5.8392   6.1736   6.3923   7.3482   7.5582
     8.4207   9.0187   9.1630  10.2000  13.2231  13.4942  13.7057  15.0917
    17.4612

          k =-0.0833-0.4167-0.2500 (  1333 PWs)   bands (ev):

   -53.2717 -27.1324 -27.1164 -27.1007 -21.8450  -6.9337  -6.0352  -5.8608
    -3.8587  -3.6353  -3.4531   5.9119   6.4901   6.7925   7.3419   7.6287
     8.5859   8.9824   9.2440   9.8895  12.8396  13.4881  13.5775  14.9398
    16.9791

          k =-0.0833-0.4167-0.1667 (  1326 PWs)   bands (ev):

   -53.2718 -27.1331 -27.1077 -27.1011 -21.8509  -7.0971  -5.9351  -5.8587
    -3.8725  -3.6971  -3.3953   5.9493   6.8916   7.1837   7.3485   7.6729
     8.7780   9.0320   9.4105   9.4485  12.4225  13.4799  13.5065  14.6504
    16.5387

          k =-0.0833-0.4167-0.0833 (  1333 PWs)   bands (ev):

   -53.2720 -27.1336 -27.1014 -27.1014 -21.8553  -7.2051  -5.8721  -5.8559
    -3.8642  -3.7651  -3.3469   5.9696   7.2070   7.3654   7.5040   7.7553
     8.7354   8.9719   9.3517   9.5908  12.0805  13.4740  13.4870  14.2801
    16.2765

          k =-0.0833-0.3333 0.0000 (  1334 PWs)   bands (ev):

   -53.2721 -27.1273 -27.1018 -27.0994 -21.8627  -7.1948  -5.9063  -5.8736
    -3.8491  -3.8245  -3.4193   6.2507   7.2718   7.3749   7.8724   8.2698
     8.5574   9.0092   9.6405   9.6713  11.9247  13.1941  13.1956  14.0936
    15.8791

          k =-0.0833-0.3333 0.0833 (  1341 PWs)   bands (ev):

   -53.2721 -27.1271 -27.1017 -27.1017 -21.8610  -7.1624  -5.9148  -5.8868
    -3.8651  -3.7842  -3.4299   6.2380   7.1987   7.3513   7.8220   7.9472
     8.8306   9.0988   9.4366   9.6439  12.0618  13.1939  13.2031  14.2835
    15.9538

          k =-0.0833-0.3333 0.1667 (  1332 PWs)   bands (ev):

   -53.2720 -27.1267 -27.1081 -27.1014 -21.8564  -7.0723  -5.9866  -5.8715
    -3.8654  -3.7229  -3.4557   6.1988   6.9600   7.3221   7.4226   7.8843
     8.7484   9.1912   9.4565   9.5318  12.4053  13.2052  13.2426  14.6487
    16.2106

          k =-0.0833-0.3333 0.2500 (  1331 PWs)   bands (ev):

   -53.2718 -27.1261 -27.1168 -27.1010 -21.8500  -6.9462  -6.0747  -5.8554
    -3.8519  -3.6663  -3.4813   6.1223   6.6708   6.9438   7.3180   7.8188
     8.5336   9.1376   9.2806   9.8731  12.8230  13.2189  13.3584  14.9127
    16.6514

          k =-0.0833-0.3333 0.3333 (  1337 PWs)   bands (ev):

   -53.2716 -27.1257 -27.1252 -27.1006 -21.8437  -6.8214  -6.1317  -5.8618
    -3.8397  -3.6229  -3.4938   5.9896   6.4713   6.4925   7.3203   7.6949
     8.4359   9.0718   9.1972  10.0935  13.1733  13.2655  13.5375  15.0400
    17.1238

          k =-0.0833-0.3333 0.4167 (  1336 PWs)   bands (ev):

   -53.2715 -27.1318 -27.1250 -27.1003 -21.8390  -6.7406  -6.1265  -5.8996
    -3.8353  -3.5905  -3.4979   5.8392   6.1736   6.3923   7.3482   7.5582
     8.4207   9.0187   9.1630  10.2000  13.2231  13.4942  13.7057  15.0917
    17.4612

          k =-0.0833-0.3333-0.5000 (  1332 PWs)   bands (ev):

   -53.2714 -27.1341 -27.1248 -27.1002 -21.8373  -6.7164  -6.0991  -5.9329
    -3.8349  -3.5764  -3.5001   5.7702   6.0683   6.3712   7.3838   7.4803
     8.4218   9.0082   9.1451  10.2299  13.2279  13.5898  13.7745  15.1053
    17.5809

          k =-0.0833-0.3333-0.4167 (  1336 PWs)   bands (ev):

   -53.2715 -27.1318 -27.1250 -27.1003 -21.8390  -6.7406  -6.1265  -5.8996
    -3.8353  -3.5905  -3.4979   5.8392   6.1736   6.3923   7.3482   7.5582
     8.4207   9.0187   9.1630  10.2000  13.2231  13.4942  13.7057  15.0917
    17.4612

          k =-0.0833-0.3333-0.3333 (  1337 PWs)   bands (ev):

   -53.2716 -27.1257 -27.1252 -27.1006 -21.8437  -6.8214  -6.1317  -5.8618
    -3.8397  -3.6229  -3.4938   5.9896   6.4713   6.4925   7.3203   7.6949
     8.4359   9.0718   9.1972  10.0935  13.1733  13.2655  13.5375  15.0400
    17.1238

          k =-0.0833-0.3333-0.2500 (  1331 PWs)   bands (ev):

   -53.2718 -27.1261 -27.1168 -27.1010 -21.8500  -6.9462  -6.0747  -5.8554
    -3.8519  -3.6663  -3.4813   6.1223   6.6708   6.9438   7.3180   7.8188
     8.5336   9.1376   9.2806   9.8731  12.8230  13.2189  13.3584  14.9127
    16.6514

          k =-0.0833-0.3333-0.1667 (  1332 PWs)   bands (ev):

   -53.2720 -27.1267 -27.1081 -27.1014 -21.8564  -7.0723  -5.9866  -5.8715
    -3.8654  -3.7229  -3.4557   6.1988   6.9600   7.3221   7.4226   7.8843
     8.7484   9.1912   9.4565   9.5318  12.4053  13.2052  13.2426  14.6487
    16.2106

          k =-0.0833-0.3333-0.0833 (  1341 PWs)   bands (ev):

   -53.2721 -27.1271 -27.1017 -27.1017 -21.8610  -7.1624  -5.9148  -5.8868
    -3.8651  -3.7842  -3.4299   6.2380   7.1987   7.3513   7.8220   7.9472
     8.8306   9.0988   9.4366   9.6439  12.0618  13.1939  13.2031  14.2835
    15.9538

          k =-0.0833-0.2500 0.0000 (  1328 PWs)   bands (ev):

   -53.2723 -27.1184 -27.1022 -27.0998 -21.8708  -7.1432  -5.9561  -5.8961
    -3.8650  -3.8377  -3.5553   6.6214   7.2922   7.3784   8.2437   8.5536
     8.8739   9.1845   9.7269   9.7613  11.8991  12.7740  12.7898  14.0895
    15.3865

          k =-0.0833-0.2500 0.0833 (  1334 PWs)   bands (ev):

   -53.2723 -27.1183 -27.1022 -27.1021 -21.8689  -7.1197  -5.9642  -5.9065
    -3.8665  -3.8102  -3.5540   6.5955   7.2401   7.3486   8.2281   8.2387
     9.0081   9.2641   9.5670   9.7267  12.0360  12.7902  12.8003  14.2845
    15.4524

          k =-0.0833-0.2500 0.1667 (  1331 PWs)   bands (ev):

   -53.2721 -27.1179 -27.1086 -27.1018 -21.8639  -7.0594  -6.0143  -5.8968
    -3.8586  -3.7583  -3.5446   6.5113   7.0641   7.3202   7.7834   8.1815
     8.7980   9.3640   9.5315   9.6190  12.3792  12.8112  12.8947  14.6319
    15.7084

          k =-0.0833-0.2500 0.2500 (  1332 PWs)   bands (ev):

   -53.2720 -27.1176 -27.1170 -27.1014 -21.8570  -6.9906  -6.0678  -5.8716
    -3.8504  -3.7081  -3.5178   6.3502   6.8570   7.2660   7.3597   8.0377
     8.5757   9.3173   9.3316   9.7941  12.7503  12.8831  13.0974  14.8346
    16.1738

          k =-0.0833-0.2500 0.3333 (  1331 PWs)   bands (ev):

   -53.2718 -27.1261 -27.1168 -27.1010 -21.8500  -6.9462  -6.0747  -5.8554
    -3.8519  -3.6663  -3.4813   6.1223   6.6708   6.9438   7.3180   7.8188
     8.5336   9.1376   9.2806   9.8731  12.8230  13.2189  13.3584  14.9127
    16.6514

          k =-0.0833-0.2500 0.4167 (  1333 PWs)   bands (ev):

   -53.2717 -27.1324 -27.1164 -27.1007 -21.8450  -6.9337  -6.0352  -5.8608
    -3.8587  -3.6353  -3.4531   5.9119   6.4901   6.7925   7.3419   7.6287
     8.5859   8.9824   9.2440   9.8895  12.8396  13.4881  13.5775  14.9398
    16.9791

          k =-0.0833-0.2500-0.5000 (  1334 PWs)   bands (ev):

   -53.2716 -27.1348 -27.1162 -27.1006 -21.8431  -6.9336  -6.0044  -5.8733
    -3.8621  -3.6235  -3.4431   5.8260   6.4165   6.7586   7.3710   7.5404
     8.6319   8.9070   9.2288   9.8893  12.8448  13.5856  13.6629  14.9460
    17.0935

          k =-0.0833-0.2500-0.4167 (  1333 PWs)   bands (ev):

   -53.2717 -27.1324 -27.1164 -27.1007 -21.8450  -6.9337  -6.0352  -5.8608
    -3.8587  -3.6353  -3.4531   5.9119   6.4901   6.7925   7.3419   7.6287
     8.5859   8.9824   9.2440   9.8895  12.8396  13.4881  13.5775  14.9398
    16.9791

          k =-0.0833-0.2500-0.3333 (  1331 PWs)   bands (ev):

   -53.2718 -27.1261 -27.1168 -27.1010 -21.8500  -6.9462  -6.0747  -5.8554
    -3.8519  -3.6663  -3.4813   6.1223   6.6708   6.9438   7.3180   7.8188
     8.5336   9.1376   9.2806   9.8731  12.8230  13.2189  13.3584  14.9127
    16.6514

          k =-0.0833-0.2500-0.2500 (  1332 PWs)   bands (ev):

   -53.2720 -27.1176 -27.1170 -27.1014 -21.8570  -6.9906  -6.0678  -5.8716
    -3.8504  -3.7081  -3.5178   6.3502   6.8570   7.2660   7.3597   8.0377
     8.5757   9.3173   9.3316   9.7941  12.7503  12.8831  13.0974  14.8346
    16.1738

          k =-0.0833-0.2500-0.1667 (  1331 PWs)   bands (ev):

   -53.2721 -27.1179 -27.1086 -27.1018 -21.8639  -7.0594  -6.0143  -5.8968
    -3.8586  -3.7583  -3.5446   6.5113   7.0641   7.3202   7.7834   8.1815
     8.7980   9.3640   9.5315   9.6190  12.3792  12.8112  12.8947  14.6319
    15.7084

          k =-0.0833-0.2500-0.0833 (  1334 PWs)   bands (ev):

   -53.2723 -27.1183 -27.1022 -27.1021 -21.8689  -7.1197  -5.9642  -5.9065
    -3.8665  -3.8102  -3.5540   6.5955   7.2401   7.3486   8.2281   8.2387
     9.0081   9.2641   9.5670   9.7267  12.0360  12.7902  12.8003  14.2845
    15.4524

          k =-0.0833-0.1667 0.0000 (  1329 PWs)   bands (ev):

   -53.2725 -27.1095 -27.1027 -27.1002 -21.8788  -7.1148  -5.9679  -5.9125
    -3.8809  -3.8516  -3.7066   6.9854   7.3244   7.3881   8.6394   8.8694
     9.2463   9.4181   9.8372   9.8820  11.8740  12.2944  12.3492  14.0788
    14.7935

          k =-0.0833-0.1667 0.0833 (  1327 PWs)   bands (ev):

   -53.2725 -27.1094 -27.1026 -27.1025 -21.8768  -7.1016  -5.9693  -5.9260
    -3.8682  -3.8383  -3.6912   6.9385   7.2989   7.3537   8.5689   8.6551
     9.2926   9.3960   9.7383   9.8313  12.0091  12.3487  12.3675  14.2831
    14.8443

          k =-0.0833-0.1667 0.1667 (  1329 PWs)   bands (ev):

   -53.2723 -27.1093 -27.1088 -27.1023 -21.8713  -7.0742  -5.9970  -5.9221
    -3.8581  -3.7987  -3.6352   6.7810   7.1892   7.3293   8.2015   8.4732
     8.9945   9.4662   9.6658   9.6705  12.3095  12.4250  12.5685  14.5578
    15.1507

          k =-0.0833-0.1667 0.2500 (  1331 PWs)   bands (ev):

   -53.2721 -27.1179 -27.1086 -27.1018 -21.8639  -7.0594  -6.0143  -5.8968
    -3.8586  -3.7583  -3.5446   6.5113   7.0641   7.3202   7.7834   8.1815
     8.7980   9.3640   9.5315   9.6190  12.3792  12.8112  12.8947  14.6319
    15.7084

          k =-0.0833-0.1667 0.3333 (  1332 PWs)   bands (ev):

   -53.2720 -27.1267 -27.1081 -27.1014 -21.8564  -7.0723  -5.9866  -5.8715
    -3.8654  -3.7229  -3.4557   6.1988   6.9600   7.3221   7.4226   7.8843
     8.7484   9.1912   9.4565   9.5318  12.4053  13.2052  13.2426  14.6487
    16.2106

          k =-0.0833-0.1667 0.4167 (  1326 PWs)   bands (ev):

   -53.2718 -27.1331 -27.1077 -27.1011 -21.8509  -7.0971  -5.9351  -5.8587
    -3.8725  -3.6971  -3.3953   5.9493   6.8916   7.1837   7.3485   7.6729
     8.7780   9.0320   9.4105   9.4485  12.4225  13.4799  13.5065  14.6504
    16.5387

          k =-0.0833-0.1667-0.5000 (  1328 PWs)   bands (ev):

   -53.2718 -27.1354 -27.1076 -27.1010 -21.8489  -7.1089  -5.9056  -5.8601
    -3.8754  -3.6876  -3.3742   5.8543   6.8680   7.1053   7.3683   7.5873
     8.8264   8.9415   9.3974   9.4117  12.4286  13.5781  13.6052  14.6493
    16.6516

          k =-0.0833-0.1667-0.4167 (  1326 PWs)   bands (ev):

   -53.2718 -27.1331 -27.1077 -27.1011 -21.8509  -7.0971  -5.9351  -5.8587
    -3.8725  -3.6971  -3.3953   5.9493   6.8916   7.1837   7.3485   7.6729
     8.7780   9.0320   9.4105   9.4485  12.4225  13.4799  13.5065  14.6504
    16.5387

          k =-0.0833-0.1667-0.3333 (  1332 PWs)   bands (ev):

   -53.2720 -27.1267 -27.1081 -27.1014 -21.8564  -7.0723  -5.9866  -5.8715
    -3.8654  -3.7229  -3.4557   6.1988   6.9600   7.3221   7.4226   7.8843
     8.7484   9.1912   9.4565   9.5318  12.4053  13.2052  13.2426  14.6487
    16.2106

          k =-0.0833-0.1667-0.2500 (  1331 PWs)   bands (ev):

   -53.2721 -27.1179 -27.1086 -27.1018 -21.8639  -7.0594  -6.0143  -5.8968
    -3.8586  -3.7583  -3.5446   6.5113   7.0641   7.3202   7.7834   8.1815
     8.7980   9.3640   9.5315   9.6190  12.3792  12.8112  12.8947  14.6319
    15.7084

          k =-0.0833-0.1667-0.1667 (  1329 PWs)   bands (ev):

   -53.2723 -27.1093 -27.1088 -27.1023 -21.8713  -7.0742  -5.9970  -5.9221
    -3.8581  -3.7987  -3.6352   6.7810   7.1892   7.3293   8.2015   8.4732
     8.9945   9.4662   9.6658   9.6705  12.3095  12.4250  12.5685  14.5578
    15.1507

          k =-0.0833-0.1667-0.0833 (  1327 PWs)   bands (ev):

   -53.2725 -27.1094 -27.1026 -27.1025 -21.8768  -7.1016  -5.9693  -5.9260
    -3.8682  -3.8383  -3.6912   6.9385   7.2989   7.3537   8.5689   8.6551
     9.2926   9.3960   9.7383   9.8313  12.0091  12.3487  12.3675  14.2831
    14.8443

          k =-0.0833-0.0833 0.0000 (  1341 PWs)   bands (ev):

   -53.2726 -27.1031 -27.1029 -27.1005 -21.8847  -7.1119  -5.9453  -5.9218
    -3.8924  -3.8701  -3.8223   7.2365   7.3625   7.3975   8.9959   9.1278
     9.3472   9.8097   9.9734  10.0240  11.8368  11.8851  11.9932  14.0311
    14.2798

          k =-0.0833-0.0833 0.0833 (  1334 PWs)   bands (ev):

   -53.2726 -27.1030 -27.1028 -27.1028 -21.8825  -7.1064  -5.9401  -5.9401
    -3.8695  -3.8695  -3.7933   7.1682   7.3599   7.3599   8.9164   8.9164
     9.4168   9.6377   9.9311   9.9311  11.9561  12.0208  12.0208  14.2809
    14.2809

          k =-0.0833-0.0833 0.1667 (  1327 PWs)   bands (ev):

   -53.2725 -27.1094 -27.1026 -27.1025 -21.8768  -7.1016  -5.9693  -5.9260
    -3.8682  -3.8383  -3.6912   6.9385   7.2989   7.3537   8.5689   8.6551
     9.2926   9.3960   9.7383   9.8313  12.0091  12.3487  12.3675  14.2831
    14.8443

          k =-0.0833-0.0833 0.2500 (  1334 PWs)   bands (ev):

   -53.2723 -27.1183 -27.1022 -27.1021 -21.8689  -7.1197  -5.9642  -5.9065
    -3.8665  -3.8102  -3.5540   6.5955   7.2401   7.3486   8.2281   8.2387
     9.0081   9.2641   9.5670   9.7267  12.0360  12.7902  12.8003  14.2845
    15.4524

          k =-0.0833-0.0833 0.3333 (  1341 PWs)   bands (ev):

   -53.2721 -27.1271 -27.1017 -27.1017 -21.8610  -7.1624  -5.9148  -5.8868
    -3.8651  -3.7842  -3.4299   6.2380   7.1987   7.3513   7.8220   7.9472
     8.8306   9.0988   9.4366   9.6439  12.0618  13.1939  13.2031  14.2835
    15.9538

          k =-0.0833-0.0833 0.4167 (  1333 PWs)   bands (ev):

   -53.2720 -27.1336 -27.1014 -27.1014 -21.8553  -7.2051  -5.8721  -5.8559
    -3.8642  -3.7651  -3.3469   5.9696   7.2070   7.3654   7.5040   7.7553
     8.7354   8.9719   9.3517   9.5908  12.0805  13.4740  13.4870  14.2801
    16.2765

          k =-0.0833-0.0833-0.5000 (  1326 PWs)   bands (ev):

   -53.2719 -27.1359 -27.1013 -27.1012 -21.8531  -7.2225  -5.8666  -5.8303
    -3.8639  -3.7581  -3.3181   5.8703   7.2805   7.3225   7.3771   7.6826
     8.7058   8.9251   9.3218   9.5724  12.0874  13.5741  13.5898  14.2778
    16.3874

          k =-0.0833-0.0833-0.4167 (  1333 PWs)   bands (ev):

   -53.2720 -27.1336 -27.1014 -27.1014 -21.8553  -7.2051  -5.8721  -5.8559
    -3.8642  -3.7651  -3.3469   5.9696   7.2070   7.3654   7.5040   7.7553
     8.7354   8.9719   9.3517   9.5908  12.0805  13.4740  13.4870  14.2801
    16.2765

          k =-0.0833-0.0833-0.3333 (  1341 PWs)   bands (ev):

   -53.2721 -27.1271 -27.1017 -27.1017 -21.8610  -7.1624  -5.9148  -5.8868
    -3.8651  -3.7842  -3.4299   6.2380   7.1987   7.3513   7.8220   7.9472
     8.8306   9.0988   9.4366   9.6439  12.0618  13.1939  13.2031  14.2835
    15.9538

          k =-0.0833-0.0833-0.2500 (  1334 PWs)   bands (ev):

   -53.2723 -27.1183 -27.1022 -27.1021 -21.8689  -7.1197  -5.9642  -5.9065
    -3.8665  -3.8102  -3.5540   6.5955   7.2401   7.3486   8.2281   8.2387
     9.0081   9.2641   9.5670   9.7267  12.0360  12.7902  12.8003  14.2845
    15.4524

          k =-0.0833-0.0833-0.1667 (  1327 PWs)   bands (ev):

   -53.2725 -27.1094 -27.1026 -27.1025 -21.8768  -7.1016  -5.9693  -5.9260
    -3.8682  -3.8383  -3.6912   6.9385   7.2989   7.3537   8.5689   8.6551
     9.2926   9.3960   9.7383   9.8313  12.0091  12.3487  12.3675  14.2831
    14.8443

          k =-0.0833-0.0833-0.0833 (  1334 PWs)   bands (ev):

   -53.2726 -27.1030 -27.1028 -27.1028 -21.8825  -7.1064  -5.9401  -5.9401
    -3.8695  -3.8695  -3.7933   7.1682   7.3599   7.3599   8.9164   8.9164
     9.4168   9.6377   9.9311   9.9311  11.9561  12.0208  12.0208  14.2809
    14.2809

     Writing output data file SrVO3.save

     init_run     :      2.83s CPU      3.30s WALL (       1 calls)
     electrons    :   1016.03s CPU   1023.09s WALL (       1 calls)

     Called by init_run:
     wfcinit      :      0.00s CPU      0.00s WALL (       1 calls)
     potinit      :      0.03s CPU      0.03s WALL (       1 calls)

     Called by electrons:
     c_bands      :   1015.90s CPU   1021.86s WALL (       1 calls)
     v_of_rho     :      0.02s CPU      0.02s WALL (       1 calls)
     v_h          :      0.00s CPU      0.00s WALL (       1 calls)
     v_xc         :      0.02s CPU      0.02s WALL (       1 calls)
     newd         :      0.10s CPU      0.11s WALL (       1 calls)

     Called by c_bands:
     init_us_2    :      4.57s CPU      4.62s WALL (    1728 calls)
     cegterg      :    883.15s CPU    888.32s WALL (    1736 calls)

     Called by sum_band:

     Called by *egterg:
     h_psi        :    673.51s CPU    677.78s WALL (   27245 calls)
     s_psi        :     36.35s CPU     36.53s WALL (   27245 calls)
     g_psi        :     10.33s CPU     10.34s WALL (   23781 calls)
     cdiaghg      :     87.87s CPU     88.18s WALL (   25509 calls)
     cegterg:over :     62.27s CPU     62.48s WALL (   23781 calls)
     cegterg:upda :     49.89s CPU     50.18s WALL (   23781 calls)
     cegterg:last :     38.54s CPU     38.63s WALL (    5192 calls)

     Called by h_psi:
     h_psi:vloc   :    598.25s CPU    602.08s WALL (   27245 calls)
     h_psi:vnl    :     72.30s CPU     72.67s WALL (   27245 calls)
     add_vuspsi   :     37.84s CPU     38.01s WALL (   27245 calls)

     General routines
     calbec       :     34.37s CPU     34.50s WALL (   27245 calls)
     fft          :      0.01s CPU      0.01s WALL (      11 calls)
     fftw         :    547.55s CPU    550.79s WALL (  817518 calls)

     Parallel routines
     fft_scatter  :     24.62s CPU     25.70s WALL (  817529 calls)

     PWSCF        : 17m13.05s CPU    17m39.83s WALL


   This run was terminated on:  16: 8:33  26Dec2014            

=------------------------------------------------------------------------------=
   JOB DONE.
=------------------------------------------------------------------------------=
