
     Program PWSCF v.5.1.1 starts on 26Dec2014 at 15:48:46 

     This program is part of the open-source Quantum ESPRESSO suite
     for quantum simulation of materials; please cite
         "P. Giannozzi et al., J. Phys.:Condens. Matter 21 395502 (2009);
          URL http://www.quantum-espresso.org", 
     in publications or presentations arising from this work. More details at
     http://www.quantum-espresso.org/quote

     Parallel version (MPI), running on     1 processors
     Waiting for input...
     Reading input from standard input

     Current dimensions of program PWSCF are:
     Max number of different atomic species (ntypx) = 10
     Max number of k-points (npk) =  40000
     Max angular momentum in pseudopotentials (lmaxx) =  3
               file O.pbe-rrkjus.UPF: wavefunction(s)  2S renormalized

     Subspace diagonalization in iterative solution of the eigenvalue problem:
     a serial algorithm will be used


     G-vector sticks info
     --------------------
     sticks:   dense  smooth     PW     G-vecs:    dense   smooth      PW
     Sum         593     593    185                10779    10779    1935



     bravais-lattice index     =            1
     lattice parameter (alat)  =       7.2528  a.u.
     unit-cell volume          =     381.5154 (a.u.)^3
     number of atoms/cell      =            5
     number of atomic types    =            3
     number of electrons       =        41.00
     number of Kohn-Sham states=           25
     kinetic-energy cutoff     =      35.0000  Ry
     charge density cutoff     =     140.0000  Ry
     convergence threshold     =      1.0E-06
     mixing beta               =       0.7000
     number of iterations used =            8  plain     mixing
     Exchange-correlation      =  SLA  PW   PBE  PBE ( 1  4  3  4 0 0)

     celldm(1)=   7.252772  celldm(2)=   0.000000  celldm(3)=   0.000000
     celldm(4)=   0.000000  celldm(5)=   0.000000  celldm(6)=   0.000000

     crystal axes: (cart. coord. in units of alat)
               a(1) = (   1.000000   0.000000   0.000000 )  
               a(2) = (   0.000000   1.000000   0.000000 )  
               a(3) = (   0.000000   0.000000   1.000000 )  

     reciprocal axes: (cart. coord. in units 2 pi/alat)
               b(1) = (  1.000000  0.000000  0.000000 )  
               b(2) = (  0.000000  1.000000  0.000000 )  
               b(3) = (  0.000000  0.000000  1.000000 )  


     PseudoPot. # 1 for V  read from file:
     ./V.pbe-sp-van.UPF
     MD5 check sum: faa3d904276cfa7a55899deb573b58ef
     Pseudo is Ultrasoft, Zval = 13.0
     Generated by new atomic code, or converted to UPF format
     Using radial grid of  853 points,  6 beta functions with: 
                l(1) =   0
                l(2) =   0
                l(3) =   1
                l(4) =   1
                l(5) =   2
                l(6) =   2
     Q(r) pseudized with  8 coefficients,  rinner =    1.200   1.200   1.200
                                                       1.200   1.200

     PseudoPot. # 2 for st read from file:
     ./Sr.pbe-sp-van.UPF
     MD5 check sum: 34096ecf8ccac85b6555741f084dc219
     Pseudo is Ultrasoft, Zval = 10.0
     Generated by new atomic code, or converted to UPF format
     Using radial grid of  883 points,  6 beta functions with: 
                l(1) =   0
                l(2) =   0
                l(3) =   1
                l(4) =   1
                l(5) =   2
                l(6) =   2
     Q(r) pseudized with  8 coefficients,  rinner =    1.000   1.000   1.000
                                                       1.000   1.000

     PseudoPot. # 3 for O  read from file:
     ./O.pbe-rrkjus.UPF
     MD5 check sum: 390ba29e75625707450f3bd3f0eb6be9
     Pseudo is Ultrasoft, Zval =  6.0
     Generated by new atomic code, or converted to UPF format
     Using radial grid of 1269 points,  4 beta functions with: 
                l(1) =   0
                l(2) =   0
                l(3) =   1
                l(4) =   1
     Q(r) pseudized with 0 coefficients 


     atomic species   valence    mass     pseudopotential
        V             13.00    23.00000     V ( 1.00)
        Sr            10.00    38.00000     st( 1.00)
        O              6.00     8.00000     O ( 1.00)

     48 Sym. Ops., with inversion, found



   Cartesian axes

     site n.     atom                  positions (alat units)
         1           V   tau(   1) = (   0.0000000   0.0000000   0.0000000  )
         2           O   tau(   2) = (   0.5000000   0.0000000   0.0000000  )
         3           O   tau(   3) = (   0.0000000   0.5000000   0.0000000  )
         4           O   tau(   4) = (   0.0000000   0.0000000   0.5000000  )
         5           Sr  tau(   5) = (   0.5000000   0.5000000   0.5000000  )

     number of k points=    10 (tetrahedron method)
                       cart. coord. in units 2pi/alat
        k(    1) = (   0.0000000   0.0000000   0.0000000), wk =   0.0312500
        k(    2) = (   0.0000000   0.0000000   0.2500000), wk =   0.1875000
        k(    3) = (   0.0000000   0.0000000  -0.5000000), wk =   0.0937500
        k(    4) = (   0.0000000   0.2500000   0.2500000), wk =   0.3750000
        k(    5) = (   0.0000000   0.2500000  -0.5000000), wk =   0.3750000
        k(    6) = (   0.0000000  -0.5000000  -0.5000000), wk =   0.0937500
        k(    7) = (   0.2500000   0.2500000   0.2500000), wk =   0.2500000
        k(    8) = (   0.2500000   0.2500000  -0.5000000), wk =   0.3750000
        k(    9) = (   0.2500000  -0.5000000  -0.5000000), wk =   0.1875000
        k(   10) = (  -0.5000000  -0.5000000  -0.5000000), wk =   0.0312500

     Dense  grid:    10779 G-vectors     FFT dimensions: (  27,  27,  27)

     Largest allocated arrays     est. size (Mb)     dimensions
        Kohn-Sham Wavefunctions         0.52 Mb     (    1357,   25)
        NL pseudopotentials             1.24 Mb     (    1357,   60)
        Each V/rho on FFT grid          0.30 Mb     (   19683)
        Each G-vector array             0.08 Mb     (   10779)
        G-vector shells                 0.00 Mb     (     158)
     Largest temporary arrays     est. size (Mb)     dimensions
        Auxiliary wavefunctions         2.07 Mb     (    1357,  100)
        Each subspace H/S matrix        0.15 Mb     (     100,  100)
        Each <psi_i|beta_j> matrix      0.02 Mb     (      60,   25)
        Arrays for rho mixing           2.40 Mb     (   19683,    8)

     Initial potential from superposition of free atoms

     starting charge   40.98977, renormalised to   41.00000
     Starting wfc are   30 randomized atomic wfcs

     total cpu time spent up to now is        3.5 secs

     per-process dynamical memory:    19.1 Mb

     Self-consistent Calculation

     iteration #  1     ecut=    35.00 Ry     beta=0.70
     Davidson diagonalization with overlap
     ethr =  1.00E-02,  avg # of iterations =  1.9

     total cpu time spent up to now is        4.9 secs

     total energy              =    -300.57543221 Ry
     Harris-Foulkes estimate   =    -301.97698271 Ry
     estimated scf accuracy    <       1.76447639 Ry

     iteration #  2     ecut=    35.00 Ry     beta=0.70
     Davidson diagonalization with overlap
     ethr =  4.30E-03,  avg # of iterations =  3.0

     total cpu time spent up to now is        6.6 secs

     total energy              =    -297.55386375 Ry
     Harris-Foulkes estimate   =    -304.55444348 Ry
     estimated scf accuracy    <      32.02852632 Ry

     iteration #  3     ecut=    35.00 Ry     beta=0.70
     Davidson diagonalization with overlap
     ethr =  4.30E-03,  avg # of iterations =  3.6

     total cpu time spent up to now is        8.4 secs

     total energy              =    -301.59394013 Ry
     Harris-Foulkes estimate   =    -301.76327980 Ry
     estimated scf accuracy    <       0.65345086 Ry

     iteration #  4     ecut=    35.00 Ry     beta=0.70
     Davidson diagonalization with overlap
     ethr =  1.59E-03,  avg # of iterations =  2.3

     total cpu time spent up to now is        9.8 secs

     total energy              =    -301.55462540 Ry
     Harris-Foulkes estimate   =    -301.63348402 Ry
     estimated scf accuracy    <       0.26366979 Ry

     iteration #  5     ecut=    35.00 Ry     beta=0.70
     Davidson diagonalization with overlap
     ethr =  6.43E-04,  avg # of iterations =  3.1

     total cpu time spent up to now is       11.3 secs

     total energy              =    -301.58121443 Ry
     Harris-Foulkes estimate   =    -301.58343316 Ry
     estimated scf accuracy    <       0.00936005 Ry

     iteration #  6     ecut=    35.00 Ry     beta=0.70
     Davidson diagonalization with overlap
     ethr =  2.28E-05,  avg # of iterations =  3.3

     total cpu time spent up to now is       12.9 secs

     total energy              =    -301.58263710 Ry
     Harris-Foulkes estimate   =    -301.58266909 Ry
     estimated scf accuracy    <       0.00112134 Ry

     iteration #  7     ecut=    35.00 Ry     beta=0.70
     Davidson diagonalization with overlap
     ethr =  2.73E-06,  avg # of iterations =  2.4

     total cpu time spent up to now is       14.6 secs

     total energy              =    -301.58217519 Ry
     Harris-Foulkes estimate   =    -301.58283526 Ry
     estimated scf accuracy    <       0.00159383 Ry

     iteration #  8     ecut=    35.00 Ry     beta=0.70
     Davidson diagonalization with overlap
     ethr =  2.73E-06,  avg # of iterations =  2.7

     total cpu time spent up to now is       16.1 secs

     total energy              =    -301.58247053 Ry
     Harris-Foulkes estimate   =    -301.58247508 Ry
     estimated scf accuracy    <       0.00002003 Ry

     iteration #  9     ecut=    35.00 Ry     beta=0.70
     Davidson diagonalization with overlap
     ethr =  4.89E-08,  avg # of iterations =  2.8

     total cpu time spent up to now is       17.8 secs

     total energy              =    -301.58247261 Ry
     Harris-Foulkes estimate   =    -301.58247593 Ry
     estimated scf accuracy    <       0.00000801 Ry

     iteration # 10     ecut=    35.00 Ry     beta=0.70
     Davidson diagonalization with overlap
     ethr =  1.95E-08,  avg # of iterations =  2.3

     total cpu time spent up to now is       19.7 secs

     End of self-consistent calculation

          k = 0.0000 0.0000 0.0000 (  1357 PWs)   bands (ev):

   -53.2663 -27.0946 -27.0946 -27.0946 -21.8938  -7.1125  -5.9186  -5.9186
    -3.9050  -3.9050  -3.9050   7.4075   7.4075   7.4075   9.3451   9.3451
     9.3451  10.1767  10.1767  10.1767  11.6664  11.6664  11.6664  13.9118
    13.9118

          k = 0.0000 0.0000 0.2500 (  1334 PWs)   bands (ev):

   -53.2660 -27.1124 -27.0937 -27.0937 -21.8774  -7.1644  -5.9292  -5.8957
    -3.8737  -3.8737  -3.5565   6.6473   7.3809   7.3809   8.6077   8.6077
     8.8479   8.8842   9.8849   9.8849  11.7265  12.7765  12.7765  13.9220
    15.3021

          k = 0.0000 0.0000-0.5000 (  1342 PWs)   bands (ev):

   -53.2656 -27.1302 -27.0929 -27.0929 -21.8610  -7.3001  -5.8724  -5.7652
    -3.8420  -3.8420  -3.2796   5.8850   7.3810   7.3810   8.0279   8.0412
     8.0412   8.4942   9.7311   9.7311  11.7885  13.5878  13.5878  13.9285
    16.2155

          k = 0.0000 0.2500 0.2500 (  1344 PWs)   bands (ev):

   -53.2656 -27.1116 -27.1110 -27.0929 -21.8635  -7.0172  -6.0820  -5.8544
    -3.8403  -3.6912  -3.5433   6.3805   6.8580   7.2991   7.3837   8.2065
     8.7808   9.1698   9.2869   9.7995  12.7136  12.8514  13.0889  14.5781
    16.1803

          k = 0.0000 0.2500-0.5000 (  1328 PWs)   bands (ev):

   -53.2652 -27.1288 -27.1102 -27.0921 -21.8494  -6.9705  -6.0050  -5.8846
    -3.8063  -3.6598  -3.4162   5.8314   6.3974   6.7596   7.4305   7.7654
     8.6389   8.9848   9.0464   9.8894  12.7949  13.5753  13.6557  14.7034
    17.0867

          k = 0.0000-0.5000-0.5000 (  1356 PWs)   bands (ev):

   -53.2649 -27.1274 -27.1274 -27.0913 -21.8378  -6.3446  -6.2138  -6.2138
    -3.7701  -3.5035  -3.5035   5.6055   5.7115   6.0759   7.5065   7.5065
     8.4716   8.9803   8.9803  10.4760  13.5677  13.5677  13.9328  14.9424
    18.0811

          k = 0.2500 0.2500 0.2500 (  1319 PWs)   bands (ev):

   -53.2653 -27.1107 -27.1101 -27.1101 -21.8506  -6.8127  -5.9554  -5.9554
    -3.8512  -3.8512  -3.4723   6.1796   6.8762   6.8762   7.4382   7.4382
     7.5010   9.5981   9.5981   9.9217  13.1228  13.2083  13.2083  16.1650
    16.1650

          k = 0.2500 0.2500-0.5000 (  1332 PWs)   bands (ev):

   -53.2649 -27.1276 -27.1094 -27.1092 -21.8378  -6.6531  -5.9963  -5.8059
    -4.0349  -3.6353  -3.6251   5.8051   6.4473   6.7158   6.9300   6.9996
     7.6245   9.5709   9.7287  10.0122  13.2644  13.7211  13.7552  16.1311
    17.2904

          k = 0.2500-0.5000-0.5000 (  1348 PWs)   bands (ev):

   -53.2645 -27.1264 -27.1264 -27.1084 -21.8262  -6.0512  -6.0097  -6.0097
    -4.0040  -3.8265  -3.8265   5.5958   6.0847   6.2101   6.9978   6.9978
     7.0266   9.8728   9.8728  10.5227  13.8206  13.8206  14.0412  16.5994
    18.0819

          k =-0.5000-0.5000-0.5000 (  1328 PWs)   bands (ev):

   -53.2642 -27.1255 -27.1255 -27.1255 -21.8144  -5.7298  -5.7298  -5.7298
    -4.2216  -4.2216  -4.2216   5.3935   6.0936   6.0936   6.7032   6.7032
     6.7032  10.5705  10.5705  10.5705  14.1591  14.1591  14.1591  18.0826
    18.0826

     the Fermi energy is    12.8073 ev

!    total energy              =    -301.58247266 Ry
     Harris-Foulkes estimate   =    -301.58247289 Ry
     estimated scf accuracy    <       0.00000027 Ry

     The total energy is the sum of the following terms:

     one-electron contribution =     -96.84115233 Ry
     hartree contribution      =      71.09044213 Ry
     xc contribution           =     -47.14771200 Ry
     ewald contribution        =    -228.68405046 Ry

     convergence has been achieved in  10 iterations

     Writing output data file SrVO3.save

     init_run     :      2.96s CPU      3.05s WALL (       1 calls)
     electrons    :     16.15s CPU     16.22s WALL (       1 calls)

     Called by init_run:
     wfcinit      :      0.52s CPU      0.52s WALL (       1 calls)
     potinit      :      0.05s CPU      0.05s WALL (       1 calls)

     Called by electrons:
     c_bands      :     11.48s CPU     11.53s WALL (      10 calls)
     sum_band     :      3.30s CPU      3.31s WALL (      10 calls)
     v_of_rho     :      0.29s CPU      0.29s WALL (      11 calls)
     newd         :      1.16s CPU      1.17s WALL (      11 calls)
     mix_rho      :      0.04s CPU      0.04s WALL (      10 calls)

     Called by c_bands:
     init_us_2    :      0.48s CPU      0.48s WALL (     210 calls)
     cegterg      :     10.65s CPU     10.70s WALL (     100 calls)

     Called by *egterg:
     h_psi        :      8.35s CPU      8.39s WALL (     384 calls)
     s_psi        :      0.45s CPU      0.45s WALL (     384 calls)
     g_psi        :      0.09s CPU      0.09s WALL (     274 calls)
     cdiaghg      :      0.73s CPU      0.73s WALL (     374 calls)

     Called by h_psi:
     add_vuspsi   :      0.46s CPU      0.46s WALL (     384 calls)

     General routines
     calbec       :      0.59s CPU      0.58s WALL (     484 calls)
     fft          :      0.11s CPU      0.18s WALL (     141 calls)
     fftw         :      8.18s CPU      8.16s WALL (   15410 calls)
     davcio       :      0.00s CPU      0.01s WALL (      10 calls)

     Parallel routines
     fft_scatter  :      0.34s CPU      0.42s WALL (   15551 calls)

     PWSCF        :    19.72s CPU        19.98s WALL


   This run was terminated on:  15:49: 6  26Dec2014            

=------------------------------------------------------------------------------=
   JOB DONE.
=------------------------------------------------------------------------------=
